% Model:              three_layers reality at 0.1mm.mph
% Version:            COMSOL 5.6.0.280
% Date:               Feb 26 2022, 11:45
% Table:              表格 1 - 全局计算 1
% freq (Hz)              real(emw.S11) (1)        imag(emw.S11) (1)
300000000                0.45633196291880296      -0.7383286968356274
330000000                0.3814620452026521       -0.7764387762568972
360000000                0.3036470013191357       -0.8071895814553761
390000000                0.22357253486491135      -0.8303494327686392
420000000                0.1419496602704763       -0.8457525710298182
450000000                0.059506274880178726     -0.8533015444505205
480000000                -0.023020863364856405    -0.8529686561054762
510000000                -0.10489386755491897     -0.844796549455646
540000000                -0.1853812043967059      -0.828897987429079
570000000                -0.26376492923672634     -0.8054548694953744
600000000                -0.33934765200915323     -0.774716526204425
630000000                -0.41145919972774686     -0.7369973294347566
660000000                -0.47946293352714575     -0.6926736580687269
690000000                -0.5427616765630077      -0.6421802609225983
720000000                -0.6008032077194057      -0.5860060623090213
750000000                -0.6530852781358951      -0.5246894590435678
780000000                -0.6991601106585311      -0.45881316096426383
810000000                -0.7386383459632921      -0.3889986305706178
840000000                -0.7711924037986659      -0.315900180426657
870000000                -0.7965592334338161      -0.24019878912978787
900000000                -0.8145424328579289      -0.1625956987911624
930000000                -0.8250137223506852      -0.08380585856164234
960000000                -0.8279137644167073      -0.004551279100000071
990000000                -0.8232523283418918      0.0744456366937402
1020000000               -0.8111078040007819      0.15246872204748443
1050000000               -0.791626075826271       0.22881457019628515
1080000000               -0.7650187739534244      0.30279889217816613
1110000000               -0.7315609254599321      0.37376264907377993
1140000000               -0.6915880341506059      0.44107790255356516
1170000000               -0.6454926225921179      0.5041533307411704
1200000000               -0.5937202748375442      0.5624393607163368
1230000000               -0.536765222646484       0.6154328731400607
1260000000               -0.4751655218049444      0.6626814394565763
1290000000               -0.409497868340428       0.7037870571911082
1320000000               -0.3403721073749324      0.7384093540730103
1350000000               -0.2684254890813249      0.7662682375806807
1380000000               -0.19431672826246837     0.7871459717575996
1410000000               -0.11871992450637397     0.8008886692474402
1440000000               -0.042318400721791966    0.8074071919256554
1470000000               0.03420148272416199      0.8066774593607783
1500000000               0.11015648145424156      0.7987401697605678
1530000000               0.1848725329338013       0.7836999435108214
1560000000               0.2576906808392135       0.7617239045262956
1590000000               0.3279728068432688       0.7330397195740914
1620000000               0.3951071208089513       0.6979331203710322
1650000000               0.45851336399807485      0.6567449374974612
1680000000               0.5176476829145319       0.6098676791917093
1710000000               0.5720071354245436       0.5577416916597322
1740000000               0.6211337948419641       0.5008509407055044
1770000000               0.6646184220752048       0.4397184573203542
1800000000               0.7021036806656803       0.3749014921751235
1830000000               0.7332868745499135       0.30698642589591385
1860000000               0.7579221937872959       0.23658348331235693
1890000000               0.7758224592934838       0.1643213004841273
1920000000               0.786860363757549        0.09084139331435975
1950000000               0.7909692127751434       0.016792574962755897
1980000000               0.7881431773347991       -0.05717463362021227
2010000000               0.7784370762626879       -0.1304135615854171
2040000000               0.7619657140855218       -0.20228688554399732
2070000000               0.7389028041556739       -0.2721720527740249
2100000000               0.7094795049909774       -0.3394666387625162
2130000000               0.6739825821608495       -0.403593677681997
2.16E9                   0.6327521672244001       -0.46400703654551356
2.19E9                   0.5861790041770171       -0.5201969227791575
2.22E9                   0.5347009442349772       -0.5716955818306354
2.25E9                   0.47879829391164874      -0.6180830924869314
2.28E9                   0.41898753800406896      -0.6589928333458643
2.31E9                   0.3558131541935204       -0.6941156912813977
2.34E9                   0.28983794358672305      -0.7232016690454168
2.37E9                   0.22163347350775453      -0.746057786352986
2.4E9                    0.1517731463272387       -0.7625425462208452
2.43E9                   0.080829887438229        -0.7725593241374485
2.46E9                   0.009378113532295451     -0.7760521781753087
2.49E9                   -0.06200297208372803     -0.7730063368414096
2.52E9                   -0.1327283484178878      -0.7634527249151618
2.55E9                   -0.2022102217158701      -0.7474737358591497
2.58E9                   -0.26986453749482137     -0.7252074835293423
2.61E9                   -0.33511909363257086     -0.6968492490205546
2.64E9                   -0.397421550106992       -0.6626502876884345
2.67E9                   -0.4562464210878906      -0.6229148248719343
2.7E9                    -0.5111008317014168      -0.5779960651748762
2.73E9                   -0.5615291828010313      -0.528291766104486
2.76E9                   -0.6071169618988574      -0.4742396555587936
2.79E9                   -0.6474939035932299      -0.41631279732663684
2.82E9                   -0.6823366338846155      -0.35501492286966574
2.85E9                   -0.7113708718297451      -0.2908757184270635
2.88E9                   -0.7343732206007169      -0.22444605495892406
2.91E9                   -0.7511725558995166      -0.15629315764018967
2.94E9                   -0.7616510078395891      -0.08699572307391407
2.97E9                   -0.765744528275291       -0.017139002354520847
3.0E9                    -0.7634430358811317      0.05269012384041453
3.03E9                   -0.7547901341515457      0.12190804635107318
3.06E9                   -0.7398824017807045      0.1899392694899687
3.09E9                   -0.7188682598564954      0.2562211565848429
3.12E9                   -0.6919464254404085      0.3202085418595798
3.15E9                   -0.6593639660294228      0.38137817267151924
3.18E9                   -0.6214139734367531      0.43923294899698284
3.21E9                   -0.5784328783675087      0.4933059307850847
3.24E9                   -0.5307974279971721      0.543164087747689
3.27E9                   -0.47892134797284297     0.5884117696449688
3.3E9                    -0.4232517079516865      0.628693876838404
3.33E9                   -0.3642650069183702      0.6636987101862339
3.36E9                   -0.3024629923396396      0.6931604758019657
3.39E9                   -0.23836822744252065     0.7168614139478786
3.42E9                   -0.17251942500378786     0.7346335134470592
3.45E9                   -0.10546657530623627     0.7463597652054115
3.48E9                   -0.03776591078409393     0.7519749033905341
3.51E9                   0.030025230357611222     0.751465583480543
3.54E9                   0.09735355716485934      0.7448699559137192
3.57E9                   0.16367489110092104      0.73227661399424
3.6E9                    0.2284590262976293       0.7138229243663551
3.63E9                   0.29119426749086585      0.6896927835201807
3.66E9                   0.35139154196345823      0.6601138779361405
3.69E9                   0.40858800704517173      0.625354552026818
3.72E9                   0.46235010578837576      0.5857204039052611
3.75E9                   0.512276054900185        0.5415507357855902
3.78E9                   0.5579977803429577       0.49321498740460434
3.81E9                   0.5991823508023021       0.4411092783661039
3.84E9                   0.635533001388588        0.3856531729908976
3.87E9                   0.666789885931589        0.3272867482898587
3.9E9                    0.6927307314226777       0.2664679843609919
3.93E9                   0.713171571388217        0.20367041253493978
3.96E9                   0.727967691177378        0.1393808712308858
3.99E9                   0.7370148294597492       0.07409716348113282
4.02E9                   0.7402505696548538       0.00832540750592237
4.05E9                   0.7376557570191054       -0.05742307231182974
4.08E9                   0.7292557221552368       -0.12263536938905428
4.11E9                   0.7151210935014796       -0.1868010813408051
4.14E9                   0.6953680334556502       -0.24941671883586017
4.17E9                   0.6701578143431413       -0.30999025020104454
4.2E9                    0.6396957359426886       -0.36804559337748594
4.23E9                   0.6042294540038281       -0.42312690257206853
4.26E9                   0.5640468263381807       -0.4748025530179234
4.29E9                   0.5194733870340216       -0.5226687856154272
4.32E9                   0.47086953701521816      -0.5663530175195683
4.35E9                   0.4186275036625018       -0.6055168460311942
4.38E9                   0.3631680879036203       -0.639858771213803
4.41E9                   0.3049371953890493       -0.6691166440573251
4.44E9                   0.24440214336871424      -0.6930698228524554
4.47E9                   0.18204774499430432      -0.7115410000513427
4.5E9                    0.11837219193315374      -0.7243976514661075
4.53E9                   0.05388277808139322      -0.7315530606495321
4.56E9                   -0.010908473649728911    -0.7329668826136273
4.59E9                   -0.07548920641353973     -0.7286452301746565
4.62E9                   -0.13935106731939229     -0.7186402902898732
4.65E9                   -0.2019939160366782      -0.7030495026867918
4.68E9                   -0.2629298507760499      -0.6820143532724696
4.71E9                   -0.3216870258935036      -0.6557188435113201
4.74E9                   -0.37781326441117        -0.6243876891835163
4.77E9                   -0.43087948858785546     -0.5882842781017419
4.8E9                    -0.48048299289259977     -0.5477083844079084
4.83E9                   -0.5262505639406225      -0.502993610070477
4.86E9                   -0.5678414177002157      -0.45450451470435455
4.89E9                   -0.6049498888161923      -0.40263340845964457
4.92E9                   -0.6373077838437533      -0.3477968158946079
4.95E9                   -0.6646863078532323      -0.2904316613102082
4.98E9                   -0.6868974935999942      -0.23099126599699962
5.01E9                   -0.7037951001093851      -0.16994127510427554
5.04E9                   -0.7152749954956468      -0.10775563975420857
5.07E9                   -0.7212750879543961      -0.04491276455917107
5.1E9                    -0.7217749074914631      0.018108108010331747
5.13E9                   -0.7167949567096861      0.08083026136191573
5.16E9                   -0.7063959318120194      0.1427826615517823
5.19E9                   -0.6906778644408202      0.20350299462794164
5.22E9                   -0.6697791656622413      0.26254067683275056
5.25E9                   -0.6438754936359136      0.31945988896541166
5.28E9                   -0.6131783461895095      0.3738426141066915
5.31E9                   -0.5779333120889205      0.42529158809931406
5.34E9                   -0.5384179864390186      0.47343304038740525
5.37E9                   -0.4949396310445434      0.5179191255854706
5.4E9                    -0.44783270336207776     0.5584300113510094
5.43E9                   -0.39745637023944874     0.5946756638475044
5.46E9                   -0.34419207260906043     0.6263974254801644
5.49E9                   -0.2884411390154685      0.6533694927503134
5.52E9                   -0.2306223852206805      0.6754003762326941
5.55E9                   -0.17116960142105936     0.692334373282816
5.58E9                   -0.1105288233870418      0.7040530242121855
5.61E9                   -0.0491553069126601      0.7104764681906003
5.64E9                   0.012489829158779032     0.7115645761958039
5.67E9                   0.07394326452563292      0.7073177232736422
5.7E9                    0.13474335018642733      0.6977770789319605
5.73E9                   0.1944340446603146       0.6830243464206898
5.76E9                   0.252568746068072        0.6631809605888596
5.79E9                   0.3087138824650696       0.6384068349219405
5.82E9                   0.3624521969403537       0.6088987965152513
5.85E9                   0.41338575089545615      0.5748888396765007
5.88E9                   0.46113872781164533      0.5366422700518838
5.91E9                   0.505360126172215        0.49445573441759577
5.94E9                   0.5457263897197223       0.44865507450999
5.97E9                   0.5819439632974376       0.399592926689125
6.0E9                    0.6137517114039078       0.34764600921747857
