% Model:              three_layers reality at 0.1mm.mph
% Version:            COMSOL 5.6.0.280
% Date:               Feb 26 2022, 11:42
% Table:              表格 1 - 全局计算 1
% freq (Hz)              real(emw.S11) (1)        imag(emw.S11) (1)
300000000                0.45936717600899546      -0.7472288276072622
330000000                0.38341569710974854      -0.7855400024837267
360000000                0.3045287116699196       -0.8163759692215069
390000000                0.22339860472755504      -0.8395093875891366
420000000                0.14074376805674868      -0.8547781884784185
450000000                0.05730000808383089      -0.8620885654027041
480000000                -0.026187670739081882    -0.8614168058814097
510000000                -0.10897299616850589     -0.8528101166025572
540000000                -0.19031610279960898     -0.8363865442644919
570000000                -0.26949094718827243     -0.8123340652845465
600000000                -0.3457924399027674      -0.7809089023798554
630000000                -0.4185432586976949      -0.7424331187788186
660000000                -0.4871003004915981      -0.6972915383555716
690000000                -0.5508607277408726      -0.6459280399432474
720000000                -0.6092675640159145      -0.58884127601788
750000000                -0.6618147956050712      -0.5265798683948429
780000000                -0.7080519388061477      -0.4597371365084315
810000000                -0.7475880367610012      -0.38894541666276883
840000000                -0.7800950543448133      -0.31487003350450316
870000000                -0.8053106453071047      -0.23820298686022678
900000000                -0.8230402714829975      -0.15965641934616626
930000000                -0.8331586602907368      -0.07995593100732136
960000000                -0.8356105930555465      1.6619181813472449E-4
990000000                -0.8304110232533589      0.07997776658052752
1020000000               -0.8176445302208379      0.15875345708900024
1050000000               -0.7974641203428654      0.23578140353639943
1080000000               -0.770089393937484       0.31036967703017315
1110000000               -0.7358041020796675      0.38185249803778964
1140000000               -0.6949531232063221      0.44959616156453547
1170000000               -0.6479388947161611      0.5130046153230478
1200000000               -0.5952173395723465      0.5715246414800719
1230000000               -0.5372933322053267      0.6246505972172481
1260000000               -0.4747157519883408      0.671928674156234
1290000000               -0.40807217567343107     0.7129606421346109
1320000000               -0.33798326288618175     0.7474070483405908
1350000000               -0.26509689101295575     0.7749898483829676
1380000000               -0.19008209697521414     0.7954944519461302
1410000000               -0.11362288465111732     0.8087711712803398
1440000000               -0.03641195663664867     0.8147360668472784
1470000000               0.04085557102963122      0.8133711900986216
1500000000               0.11748841350459892      0.8047242290590346
1530000000               0.19280526489073538      0.7889075678609877
1560000000               0.266140794683891        0.766096776591708
1590000000               0.33685144085871815      0.7365285528098195
1620000000               0.40432095044767835      0.7004981407513713
1650000000               0.4679656216058501       0.6583562585413575
1680000000               0.527239204681852        0.6105055677780046
1710000000               0.5816374239093908       0.5573967233334057
1740000000               0.6307020854025638       0.4995240445041178
1770000000               0.6740247418243381       0.43742085130420716
1800000000               0.7112498888074441       0.3716545121549017
1830000000               0.7420776735595767       0.30282125082806677
1860000000               0.7662661013631369       0.23154076205424776
1890000000               0.7836327318074812       0.15845068553447572
1920000000               0.7940558627731662       0.08420098805046426
1950000000               0.7974752071833393       0.009448301784627678
1980000000               0.7938920748469922       -0.0651497363633824
2010000000               0.7833690792856317       -0.13894010540988694
2040000000               0.7660293964983268       -0.21127995195726312
2070000000               0.7420556071011571       -0.2815420595506307
2100000000               0.7116881513240078       -0.34912024546035814
2130000000               0.6752234104254484       -0.41343472528576897
2.16E9                   0.6330113860980519       -0.47393751957442504
2.19E9                   0.585452866295937        -0.5301179961594052
2.22E9                   0.5329958322613372       -0.5815086089921371
2.25E9                   0.47613070072599034      -0.6276907416857702
2.28E9                   0.41538390762366934      -0.6683002213195985
2.31E9                   0.35130953756647315      -0.7030315505201851
2.34E9                   0.2844794280456707       -0.7316394773052934
2.37E9                   0.21547338242460834      -0.7539367599996126
2.4E9                    0.1448720751631763       -0.7697883948858959
2.43E9                   0.07325470807571684      -0.7791047196272928
2.46E9                   0.0012010864487210782    -0.7818369886290487
2.49E9                   -0.07070490804212053     -0.7779777543217007
2.52E9                   -0.141874140463897       -0.7675654160830817
2.55E9                   -0.21171521762390846     -0.750690079504083
2.58E9                   -0.2796410442753812      -0.7274978813829525
2.61E9                   -0.3450770314511045      -0.6981924527616772
2.64E9                   -0.40746920654488045     -0.6630336814620299
2.67E9                   -0.4662912829825337      -0.6223346209368259
2.7E9                    -0.5210504629379676      -0.57645739182112
2.73E9                   -0.5712921186189469      -0.525808642859987
2.76E9                   -0.6166035964507256      -0.4708348596547744
2.79E9                   -0.6566173537245676      -0.4120176292047602
2.82E9                   -0.6910135667588634      -0.3498688796611181
2.85E9                   -0.7195222872864311      -0.2849260841673522
2.88E9                   -0.7419251811878873      -0.21774741581811985
2.91E9                   -0.7580568588516657      -0.14890685000161158
2.94E9                   -0.7678057941908873      -0.07898922191579723
2.97E9                   -0.7711148249904         -0.008585257279691309
3.0E9                    -0.7679812274604881      0.06171339765274608
3.03E9                   -0.758456360761581       0.13131911499258808
3.06E9                   -0.7426448815310034      0.19965315751684254
3.09E9                   -0.7207035334700178      0.26615044714415775
3.12E9                   -0.6928395222429469      0.3302641921636551
3.15E9                   -0.6593084908503931      0.3914703373592161
3.18E9                   -0.6204121147443389      0.44927180393186456
3.21E9                   -0.5764953386286391      0.5032024901047725
3.24E9                   -0.5279432778708685      0.5528310072504111
3.27E9                   -0.4751778064504148      0.5977641299903386
3.3E9                    -0.4186538509455175      0.6376499404235049
3.33E9                   -0.3588554070357566      0.6721806459133761
3.36E9                   -0.2962912926790741      0.7010950462234536
3.39E9                   -0.23149065237859479     0.7241806193047796
3.42E9                   -0.16499823102976166     0.7412751870183615
3.45E9                   -0.0973694453327271      0.752268114059021
3.48E9                   -0.029165295905111854    0.7571009881902494
3.51E9                   0.0390528166352965       0.7557677306470977
3.54E9                   0.10672828576143267      0.7483140952498354
3.57E9                   0.173314397139335        0.7348365352410502
3.6E9                    0.23827921174021968      0.7154804470992189
3.63E9                   0.3011101148756886       0.6904378364940976
3.66E9                   0.36131792622846837      0.6599444863058044
3.69E9                   0.4184404919457393       0.6242767335904388
3.72E9                   0.47204571154669606      0.5837479784074752
3.75E9                   0.5217339848027687       0.5387050540669679
3.78E9                   0.5671400956018682       0.48952458974585955
3.81E9                   0.6079345853356973       0.43660949361509965
3.84E9                   0.6438247112935596       0.38038567176605886
3.87E9                   0.6745551323146259       0.3212990642342046
3.9E9                    0.6999084994154814       0.2598130168009553
3.93E9                   0.7197061321698635       0.19640592127666417
3.96E9                   0.7338089163382908       0.1315689702006518
3.99E9                   0.7421184675413088       0.06580381495445113
4.02E9                   0.7445784928221504       -3.8008580577003647E-4
4.05E9                   0.7411761821333255       -0.06646858307850172
4.08E9                   0.7319434060487335       -0.13194647590918093
4.11E9                   0.7169574982206885       -0.19630161725781847
4.14E9                   0.6963414545975379       -0.25902934446048276
4.17E9                   0.6702634647961319       -0.3196370438755488
4.2E9                    0.6389357782135229       -0.3776486581311939
4.23E9                   0.6026129763940244       -0.43260898095521116
4.26E9                   0.5615897607785673       -0.484087642079559
4.29E9                   0.5161983687278404       -0.5316827441752616
4.32E9                   0.4668057077337963       -0.5750241588590745
4.35E9                   0.4138102613367858       -0.6137765104656586
4.38E9                   0.35763878534666277      -0.6476418739880551
4.41E9                   0.2987427906703154       -0.6763621947198848
4.44E9                   0.23759480410920483      -0.6997214123152573
4.47E9                   0.17468440877328126      -0.7175472513275143
4.5E9                    0.11051408533989555      -0.7297126296862276
4.53E9                   0.045594897615095324     -0.7361366376849703
4.56E9                   -0.01955791464450396     -0.7367850516236957
4.59E9                   -0.08442935954231122     -0.7316703657943783
4.62E9                   -0.148509053425326       -0.7208513509823978
4.65E9                   -0.21129544503817643     -0.7044321729851325
4.68E9                   -0.2722998498671504      -0.6825611250679973
4.71E9                   -0.3310502692521662      -0.6554290369350971
4.74E9                   -0.38709499838913386     -0.6232674146872063
4.77E9                   -0.44000604738307747     -0.5863463418432427
4.8E9                    -0.48938240067277816     -0.5449721388928515
4.83E9                   -0.5348531197638275      -0.4994847514716206
4.86E9                   -0.576080259404581       -0.45025482767687147
4.89E9                   -0.6127615312464683      -0.3976804590828436
4.92E9                   -0.6446326257884373      -0.3421835938149495
4.95E9                   -0.6714691012324696      -0.28420617332349346
4.98E9                   -0.6930877681759697      -0.22420608498214736
5.01E9                   -0.709347537451617       -0.16265305014309325
5.04E9                   -0.7201497472797634      -0.1000245749676873
5.07E9                   -0.7254380356684895      -0.036802075360902756
5.1E9                    -0.7251978630534069      0.02653275232292386
5.13E9                   -0.7194558057964006      0.08950130053926951
5.16E9                   -0.7082787233537999      0.15163120644843495
5.19E9                   -0.6917728502661323      0.21245938415393223
5.22E9                   -0.670082793597011       0.2715350274163242
5.25E9                   -0.6433903558907339      0.3284226350418874
5.28E9                   -0.6119130834087239      0.3827050377343609
5.31E9                   -0.5759024728507467      0.4339863344404177
5.34E9                   -0.5356418426632369      0.48189461433673664
5.37E9                   -0.4914439515017588      0.5260843640668169
5.4E9                    -0.4436484894696225      0.5662385263583064
5.43E9                   -0.392619559755941       0.6020702529574552
5.46E9                   -0.33874321717875766     0.6333244487476904
5.49E9                   -0.282425060644994       0.6597792169081791
5.52E9                   -0.22408781511579523     0.6812472883246212
5.55E9                   -0.164168802653084       0.6975774660680796
5.58E9                   -0.10311719714802746     0.7086560548854219
5.61E9                   -0.04139098107019504     0.7144081904451821
5.64E9                   0.020546430661322647     0.7147989437784585
5.67E9                   0.08222987196151817      0.7098340613826202
5.7E9                    0.14319631682838896      0.6995602186489791
5.73E9                   0.2029888305071438       0.6840647172381012
5.76E9                   0.2611604108192861       0.6634746372875013
5.79E9                   0.3172775808095484       0.6379555372424215
5.82E9                   0.3709236693469496       0.6077098425659214
5.85E9                   0.4217018045055168       0.5729750558846249
5.88E9                   0.46923770399968334      0.5340218610962734
5.91E9                   0.5131823529739145       0.4911521160326007
5.94E9                   0.5532146180951489       0.44469667080160413
5.97E9                   0.5890437859230468       0.3950129324530423
6.0E9                    0.6204119618325923       0.34248211707383086
