% Model:              three_layers reality at 0.1mm.mph
% Version:            COMSOL 5.6.0.280
% Date:               Mar 2 2022, 17:25
% Table:              表格 1 - 全局计算 1
% freq (Hz)              real(emw.S11) (1)        imag(emw.S11) (1)
300000000                0.4706313450811047       -0.8684794951998329
330000000                0.3751852123397457       -0.9131002009181872
360000000                0.2756505926159525       -0.9472837840697759
390000000                0.17315742312788168      -0.9706693309929042
420000000                0.06886770443955968      -0.9830167769700987
450000000                -0.03603768132974956     -0.9842101822731198
480000000                -0.1403724822874155      -0.9742593939810704
510000000                -0.24295870847535098     -0.9533001132640395
540000000                -0.3426401912392878      -0.9215923973516857
570000000                -0.43829588999144314     -0.879517636949665
600000000                -0.5288527760008871      -0.8275740629514257
630000000                -0.6132981320135333      -0.7663708503035094
660000000                -0.6906911162817535      -0.696620901222785
690000000                -0.760173450023346       -0.6191324044607873
720000000                -0.8209790998233842      -0.5347992806849317
750000000                -0.8724428395273391      -0.4445906370343837
780000000                -0.9140075910755757      -0.3495393654066634
810000000                -0.9452304600494869      -0.2507300284090523
840000000                -0.9657873983675658      -0.14928618555592799
870000000                -0.9754764448371213      -0.04635731793107695
900000000                -0.9742195126635731      0.05689448646659012
930000000                -0.9620627118269033      0.15930792259484464
960000000                -0.939175213106741       0.2597357700967747
990000000                -0.9058466790728087      0.35705794602343655
1020000000               -0.8624833053278073      0.4501941528562037
1050000000               -0.8096025324791658      0.5381159728346637
1080000000               -0.7478265053557248      0.6198582686778178
1110000000               -0.6778743707133984      0.69452976140429
1140000000               -0.6005535179550217      0.7613226680860401
1170000000               -0.5167498788547233      0.8195212960265668
1200000000               -0.42741741215298995     0.868509504321424
1230000000               -0.3335669065681474      0.9077769593794447
1260000000               -0.2362542417882276      0.9369241268789477
1290000000               -0.13656825091202549     0.9556659590211904
1320000000               -0.03561832975342654     0.9638342523830977
1350000000               0.06547806143615968      0.9613786678933489
1380000000               0.16560786001373595      0.9483664203455682
1410000000               0.2636746863794107       0.9249806601497845
1440000000               0.3586108173377479       0.8915175845777816
1470000000               0.44938871854884294      0.8483823293703452
1500000000               0.5350320147247983       0.7960837042168816
1530000000               0.6146257852692092       0.7352278470814597
1560000000               0.6873260828246665       0.6665108826160488
1590000000               0.7523685827852962       0.5907106789696889
1620000000               0.8090762832185381       0.5086778049805518
1650000000               0.8568661863740407       0.4213257962490673
1680000000               0.8952549052565459       0.32962084360784893
1710000000               0.9238631511090869       0.23457102149449907
1740000000               0.9424190704142625       0.13721517609998563
1770000000               0.9507604126597216       0.038611594608496544
1800000000               0.9488355229223959       -0.06017342334061664
1830000000               0.9367031659885833       -0.1580769719836826
1860000000               0.9145312013615918       -0.25405080647792955
1890000000               0.8825941409401552       -0.34707235768968636
1920000000               0.8412696333380396       -0.43615538785521696
1950000000               0.7910339304985098       -0.5203601884077472
1980000000               0.7324564030163057       -0.5988032321480319
2010000000               0.666193179385206        -0.6706662064045386
2040000000               0.5929799895537856       -0.7352043724764354
2070000000               0.5136242913155901       -0.7917542201589811
2100000000               0.42899674363432294      -0.8397404134289741
2130000000               0.34002205597599056      -0.8786820492693759
2.16E9                   0.2476691773827165       -0.9081982626810211
2.19E9                   0.15294068910327072      -0.9280131782879437
2.22E9                   0.056861147522246296     -0.9379600846629679
2.25E9                   -0.039535937999735184    -0.9379844364845612
2.28E9                   -0.13522265746781273     -0.9281448672828273
2.31E9                   -0.22919236830146544     -0.9086109888127707
2.34E9                   -0.32047498461658575     -0.8796568166182601
2.37E9                   -0.4081492742333362      -0.8416497816544176
2.4E9                    -0.4913495439833193      -0.7950374826013484
2.43E9                   -0.5692661959833191      -0.7403362595875672
2.46E9                   -0.6411430485448163      -0.6781252237698066
2.49E9                   -0.7062762881628523      -0.6090460931091317
2.52E9                   -0.7640184925889262      -0.533805530665153
2.55E9                   -0.8137876258871652      -0.4531756330645614
2.58E9                   -0.855078272007715       -0.36799003597225144
2.61E9                   -0.8874720990937605      -0.2791356615524225
2.64E9                   -0.9106458025616763      -0.18754160156447966
2.67E9                   -0.9243761365745915      -0.09416677027144603
2.7E9                    -0.9285424072463363      1.2558117188624362E-5
2.73E9                   -0.9231269979931181      0.09401477930960274
2.76E9                   -0.9082144062248437      0.18686437451974963
2.79E9                   -0.883989109266522       0.2776026974148795
2.82E9                   -0.8507324447771417      0.36529816291377265
2.85E9                   -0.8088186086230525      0.4490558587022857
2.88E9                   -0.7587098321071412      0.5280265751443983
2.91E9                   -0.7009507855456967      0.6014152261624867
2.94E9                   -0.6361622547335624      0.6684886174435906
2.97E9                   -0.5650341431764936      0.7285825096970056
3.0E9                    -0.48831786184406695     0.7811079222039581
3.03E9                   -0.40681817748847077     0.8255566239511793
3.06E9                   -0.32138459903799027     0.8615057652110356
3.09E9                   -0.23290238856610523     0.8886216105279154
3.12E9                   -0.14228328841288926     0.9066623439946124
3.15E9                   -0.05045605870727457     0.9154799287533175
3.18E9                   0.0416430802957402       0.9150210139538268
3.21E9                   0.13308000927843883      0.9053268929770453
3.24E9                   0.22293218721219077      0.8865325254248063
3.27E9                   0.31029796387912456      0.8588646412834628
3.3E9                    0.3943056519475976       0.822638948365797
3.33E9                   0.47412228662130185      0.7782564639049963
3.36E9                   0.5489620005369072       0.7261989893636391
3.39E9                   0.6180939367204697       0.6670237461284838
3.42E9                   0.6808496124951756       0.6013571916648777
3.45E9                   0.7366296340093094       0.5298880436017325
3.48E9                   0.7849096468264055       0.4533595560361753
3.51E9                   0.8252453977658608       0.3725611191184889
3.54E9                   0.8572767821439587       0.2883192890547927
3.57E9                   0.8807307644084137       0.20148839677792144
3.6E9                    0.8954230919951485       0.11294092203643676
3.63E9                   0.9012587704960595       0.02355784662603074
3.66E9                   0.8982313261622917       -0.06578079169606692
3.69E9                   0.8864209393084302       -0.15420493633746526
3.72E9                   0.8659915807659968       -0.24086296209240646
3.75E9                   0.8371873202976232       -0.324929400586629
3.78E9                   0.8003280035730225       -0.40561184889959345
3.81E9                   0.7558045154531339       -0.48215702366920177
3.84E9                   0.704073856592639        -0.5538559923289235
3.87E9                   0.6456542425302292       -0.620048697683409
3.9E9                    0.5811203723712502       -0.6801279765172265
3.93E9                   0.5110989041110919       -0.7335433267662803
3.96E9                   0.4362640359125699       -0.7798046692074335
3.99E9                   0.3573329691130237       -0.8184862648494861
4.02E9                   0.27506096410093817      -0.8492308055241126
4.05E9                   0.190235720658969        -0.8717535354947679
4.08E9                   0.10367091397434276      -0.885846136641569
4.11E9                   0.01619886260729082      -0.8913800544653756
4.14E9                   -0.07133754982443641     -0.8883089654062415
4.17E9                   -0.15809346995987125     -0.8766701708527688
4.2E9                    -0.2432309088378224      -0.856584818098543
4.23E9                   -0.32592754678958946     -0.8282569596456928
4.26E9                   -0.40538529496256137     -0.791971543653955
4.29E9                   -0.4808384730190245      -0.7480914669850898
4.32E9                   -0.5515615314688391      -0.6970538193988624
4.35E9                   -0.6168762923723016      -0.6393654162624185
4.38E9                   -0.6761586967854708      -0.5755976767596586
4.41E9                   -0.7288450353582325      -0.5063808730825199
4.44E9                   -0.7744376123006588      -0.43239776414532427
4.47E9                   -0.8125097663623633      -0.35437663654294466
4.5E9                    -0.8427101559338864      -0.27308380040307434
4.53E9                   -0.864766213915647       -0.18931562006171532
4.56E9                   -0.878486691960326       -0.10389019134416747
4.59E9                   -0.8837632410409475      -0.0176388022066305
4.62E9                   -0.8805710123380757      0.06860267327316699
4.65E9                   -0.8689683038313046      0.1540023004724212
4.68E9                   -0.849095315496748       0.23774040349881922
4.71E9                   -0.8211720993939177      0.3190175892251529
4.74E9                   -0.7854957914856654      0.39706243025901744
4.77E9                   -0.7424371881129925      0.47113879530753106
4.8E9                    -0.6924366907835737      0.5405528260158768
4.83E9                   -0.6359996061818932      0.6046595403325801
4.86E9                   -0.5736907728958813      0.6628690004863248
4.89E9                   -0.5061285024970854      0.7146519365440067
4.92E9                   -0.4339778678531421      0.7595446838257118
4.95E9                   -0.35794343265094375     0.7971532880921721
4.98E9                   -0.2787615759919511      0.8271566601955155
5.01E9                   -0.19719260901879992     0.8493087171578644
5.04E9                   -0.11401289567348272     0.8634395190212486
5.07E9                   -0.0300071702732577      0.8694554863104638
5.1E9                    0.05403881005989959      0.8673388442492354
5.13E9                   0.1373452214378572       0.857146468106998
5.16E9                   0.2191447687705896       0.8390082846517981
5.19E9                   0.29868901528205         0.8131253169192185
5.22E9                   0.3752545502153266       0.7797673646606716
5.25E9                   0.4481490444885422       0.7392702314928581
5.28E9                   0.516717146630003        0.6920323839171649
5.31E9                   0.5803460785522191       0.6385109751706974
5.34E9                   0.6384707526255472       0.5792172671832575
5.37E9                   0.6905782693275381       0.514711586497864
5.4E9                    0.7362117497678465       0.4455980040060027
5.43E9                   0.7749735629251913       0.37251891116709596
5.46E9                   0.8065280777105305       0.2961495900665489
5.49E9                   0.8306040812313853       0.21719277759007394
5.52E9                   0.8469969609179615       0.13637314228700156
5.55E9                   0.8555706708118948       0.05443155004750142
5.58E9                   0.8562594170011502       -0.027881001921786955
5.61E9                   0.849068924806625        -0.10980985925653208
5.64E9                   0.8340771056447782       -0.19060359458591966
5.67E9                   0.811433935716718        -0.2695212116084535
5.7E9                    0.7813604001784804       -0.34583948803925807
5.73E9                   0.7441464451470012       -0.41886021279156643
5.76E9                   0.7001479975523296       -0.48791706503557
5.79E9                   0.6497832194731785       -0.5523819457839219
5.82E9                   0.5935282127167322       -0.6116706879415894
5.85E9                   0.5319123571737031       -0.6652481883676591
5.88E9                   0.4655133723082374       -0.7126330704150025
5.91E9                   0.39495208736122084      -0.7534019731647481
5.94E9                   0.3208868431881442       -0.7871934930700332
5.97E9                   0.24400744713850087      -0.8137117186954245
6.0E9                    0.16502864864404287      -0.8327292378385271
