% Model:              three_layers reality at 0.1mm.mph
% Version:            COMSOL 5.6.0.280
% Date:               Mar 2 2022, 17:24
% Table:              表格 1 - 全局计算 1
% freq (Hz)              real(emw.S11) (1)        imag(emw.S11) (1)
300000000                0.4701608303579747       -0.8697024031368316
330000000                0.3744548403784956       -0.9144091944854611
360000000                0.27463181231805706      -0.9486319753730715
390000000                0.1718306665940187       -0.9720043611803075
420000000                0.06722298838912533      -0.9842826084657079
450000000                -0.038000446657125944    -0.9853488424104566
480000000                -0.1426434431022244      -0.9752126549017099
510000000                -0.24551825039196223     -0.954011093310041
540000000                -0.34545933376513666     -0.9220070689780826
570000000                -0.44133687335421956     -0.8795862258927296
600000000                -0.5320698212596809      -0.8272523235892962
630000000                -0.6166383555379977      -0.7656212025247019
660000000                -0.6940955779782334      -0.6954134156465135
690000000                -0.763578314543567       -0.6174456239240652
720000000                -0.8243168881760428      -0.5326208683527519
750000000                -0.8756437479358704      -0.4419178436970696
780000000                -0.9170008533565494      -0.34637931090466906
810000000                -0.9479457291613038      -0.24709979526106465
840000000                -0.9681561229962736      -0.14521272546461636
870000000                -0.9774332171463395      -0.04187717501281643
900000000                -0.9757033641869053      0.061735629320340206
930000000                -0.9630183355214614      0.16445586475659424
960000000                -0.9395540911116769      0.2651285697027458
990000000                -0.9056080975308716      0.3626268375009698
1020000000               -0.8615952397134952      0.4558645890319273
1050000000               -0.8080423892306361      0.5438087732314119
1080000000               -0.7455817081717362      0.6254908541258424
1110000000               -0.6749427825839555      0.7000174539452306
1140000000               -0.5969436927954102      0.7665800343745728
1170000000               -0.5124811395017811      0.8244635119904311
1200000000               -0.42251975429882416     0.8730537188554772
1230000000               -0.3280807310431568      0.9118436351445416
1260000000               -0.23022992029015016     0.940438336968132
1290000000               -0.13006553285692296     0.9585586192593092
1320000000               -0.02870560031067626     0.9660432703352969
1350000000               0.07272465997805248      0.9628499912432892
1380000000               0.17310542936611917      0.9490549690857354
1410000000               0.27133468009137207      0.9248511290540075
1440000000               0.3663402382708807       0.8905451045561563
1470000000               0.4570913876761575       0.8465529786096418
1500000000               0.5426098923362119       0.7933948623287318
1530000000               0.6219803251007513       0.7316883878684193
1560000000               0.6943595994279619       0.6621412034787535
1590000000               0.7589856126183054       0.5855425672926786
1620000000               0.815184920272592        0.5027541441368396
1650000000               0.8623793738047767       0.414700116020124
1680000000               0.9000916653064945       0.3223567219512343
1710000000               0.927949736776246        0.22674134636751733
1740000000               0.9456900235072312       0.12890127791751133
1770000000               0.9531595143696969       0.02990226138844583
1800000000               0.9503166246040572       -0.06918303474418054
1830000000               0.9372308895129522       -0.16728651403262945
1860000000               0.9140815001478722       -0.2633559930842108
1890000000               0.8811547145442266       -0.35636627424604683
1920000000               0.8388401901967939       -0.44532984272600107
1950000000               0.7876262951016231       -0.5293070891520824
1980000000               0.7280944652332562       -0.6074159698111841
2010000000               0.6609126849005161       -0.6788410312666686
2040000000               0.5868281713036299       -0.742841744622639
2070000000               0.5066593422171554       -0.7987601180747106
2100000000               0.42128713109861327      -0.846027582752324
2130000000               0.33164567869474393      -0.8841711715990102
2.16E9                   0.238712365767163        -0.912819019997858
2.19E9                   0.14349705406407606      -0.9317051817507281
2.22E9                   0.04703029122187683      -0.9406736278030744
2.25E9                   -0.049649817245632735    -0.9396810257055073
2.28E9                   -0.14551220415996102     -0.9287974855818171
2.31E9                   -0.23954845416825876     -0.9082040750194142
2.34E9                   -0.33078791846669253     -0.878186002929591
2.37E9                   -0.41830974446672387     -0.8391215162436476
2.4E9                    -0.5012493000372168      -0.7914687235906325
2.43E9                   -0.5787986140354574      -0.7357543950271583
2.46E9                   -0.650203812321758       -0.672568231291278
2.49E9                   -0.7147643667923294      -0.602562782500041
2.52E9                   -0.7718374391534519      -0.5264556336849905
2.55E9                   -0.8208470669052587      -0.445029562206626
2.58E9                   -0.8612954008094894      -0.35912826214747784
2.61E9                   -0.8927730228920574      -0.26964776752388253
2.64E9                   -0.9149666665636591      -0.17752511118865139
2.67E9                   -0.9276640091464166      -0.0837258467125197
2.7E9                    -0.9307559420903504      0.010768479339197487
2.73E9                   -0.9242368982772753      0.10497238259872876
2.76E9                   -0.908203712994127       0.197907859533394
2.79E9                   -0.8828533304349353      0.28861516415175653
2.82E9                   -0.8484795356038939      0.37616297680032007
2.85E9                   -0.8054688110743424      0.45965798646215605
2.88E9                   -0.7542953787362454      0.5382538817944122
2.91E9                   -0.695515473216986       0.6111597225489317
2.94E9                   -0.6297608939958071      0.6776476472608892
2.97E9                   -0.5577318900971989      0.7370598647403298
3.0E9                    -0.48018944032203814     0.7888148748392622
3.03E9                   -0.39794700141337813     0.8324128663257158
3.06E9                   -0.3118618047763616      0.8674402457025776
3.09E9                   -0.22282578939379702     0.8935732590100246
3.12E9                   -0.1317562632901142      0.9105806788415327
3.15E9                   -0.03958638847769844     0.9183255398702429
3.18E9                   0.052744415793064374     0.9167659175331796
3.21E9                   0.14430005949722294      0.9059547550309937
3.24E9                   0.23415727065812658      0.8860387524003386
3.27E9                   0.3214149053190427       0.8572563372755433
3.3E9                    0.4052030028634217       0.8199347396229341
3.33E9                   0.48469151440460384      0.7744861926028677
3.36E9                   0.5590986316255627       0.7214032801049262
3.39E9                   0.6276986385486094       0.6612534504807042
3.42E9                   0.689829199129315        0.594672718256326
3.45E9                   0.7448979806832736       0.5223585839745823
3.48E9                   0.7923884997135691       0.4450622193705911
3.51E9                   0.8318650672969174       0.3635799919882739
3.54E9                   0.8629767112736926       0.27874443903267143
3.57E9                   0.8854599672704868       0.19141484064708036
3.6E9                    0.8991404631768671       0.10246758008383039
3.63E9                   0.9039332701836283       0.012786503709067544
3.66E9                   0.8998420510995864       -0.07674649997683411
3.69E9                   0.8869570933363378       -0.16526049758114175
3.72E9                   0.8654523613959619       -0.2519039110839263
3.75E9                   0.8355817391520475       -0.33585218840830244
3.78E9                   0.7976746584360996       -0.4163146580968107
3.81E9                   0.7521313297795289       -0.49254053634197775
3.84E9                   0.6994177980054869       -0.5638241238120504
3.87E9                   0.6400610247652978       -0.6295093127015251
3.9E9                    0.5746441358010914       -0.68899360569543
3.93E9                   0.5038018600792483       -0.7417318977203423
3.96E9                   0.42821605239597144      -0.7872402577638552
3.99E9                   0.3486110722948567       -0.8250998598455462
4.02E9                   0.2657487338294619       -0.8549610680025119
4.05E9                   0.1804225669821431       -0.8765475233993965
4.08E9                   0.09345123449913242      -0.8896599619053716
4.11E9                   0.005671093074107603     -0.8941794413461195
4.14E9                   -0.08207196949386014     -0.8900696859140695
4.17E9                   -0.16893118673138563     -0.877378342806514
4.2E9                    -0.2540677767805031      -0.8562370610701091
4.23E9                   -0.33665975170923135     -0.8268604117501355
4.26E9                   -0.41591046365492473     -0.7895437467672428
4.29E9                   -0.4910567524222854      -0.744660129545747
4.32E9                   -0.561376626631246       -0.6926564654090743
4.35E9                   -0.626196454006825       -0.6340489276960375
4.38E9                   -0.6848976493419879      -0.5694177355461856
4.41E9                   -0.736922835850003       -0.4994013088859414
4.44E9                   -0.7817814295189649      -0.4246898153142499
4.47E9                   -0.8190545700677152      -0.346018133795171
4.5E9                    -0.848399306786893       -0.264158285066546
4.53E9                   -0.8695519469766243      -0.17991141078446282
4.56E9                   -0.8823304894738526      -0.09409941442203151
4.59E9                   -0.8866360934214699      -0.007556400912917218
4.62E9                   -0.8824535693472321      0.07887993583585134
4.65E9                   -0.8698509203828433      0.16437683240094586
4.68E9                   -0.8489779978768495      0.2481147588564118
4.71E9                   -0.8200643577504421      0.32929541888225966
4.74E9                   -0.7834164033552724      0.40714940291476887
4.77E9                   -0.7394138761780032      0.4809434831307887
4.8E9                    -0.6885057168483771      0.5499875483858345
4.83E9                   -0.6312052834215962      0.613641157166004
4.86E9                   -0.5680849001486556      0.6713196446828658
4.89E9                   -0.4997697274853858      0.7224996741642234
4.92E9                   -0.42693099002028606     0.7667240913579022
4.95E9                   -0.3502786597209087      0.8036059388212181
4.98E9                   -0.2705537505799397      0.8328315158159807
5.01E9                   -0.188520421888423       0.8541624257375035
5.04E9                   -0.10495810048326765     0.8674366251912368
5.07E9                   -0.020653810881394997    0.8725685632280404
5.1E9                    0.06360515371525288      0.8695485584539315
5.13E9                   0.1470381679959603       0.8584415873208777
5.16E9                   0.22887785345729839      0.8393856350166807
5.19E9                   0.30837639506839987      0.81258969124932
5.22E9                   0.38481169760013234      0.7783313789809138
5.25E9                   0.45749342693238265      0.7369541253891009
5.28E9                   0.5257688839899803       0.6888637621172881
5.31E9                   0.5890285687998816       0.6345244923835036
5.34E9                   0.6467112575989837       0.5744542634151518
5.37E9                   0.6983084570711665       0.509219683026024
5.4E9                    0.7433681956830228       0.4394306695309511
5.43E9                   0.781498216162731        0.3657350033980249
5.46E9                   0.8123686999617296       0.28881287212236556
5.49E9                   0.8357146622676958       0.20937140308647195
5.52E9                   0.8513381096486459       0.12813910006662121
5.55E9                   0.8591099741816226       0.045860059861064346
5.58E9                   0.8589717534221748       -0.03671214780566035
5.61E9                   0.850936715489575        -0.11882100728440557
5.64E9                   0.8350904871154363       -0.19971398548050076
5.67E9                   0.8115908402659923       -0.2786497648027327
5.7E9                    0.780666537525537        -0.35490559495215185
5.73E9                   0.7426151867885857       -0.4277845179206372
5.76E9                   0.6978001727321677       -0.4966222173259926
5.79E9                   0.6466468359948436       -0.5607933093694892
5.82E9                   0.5896381155440977       -0.6197170086662297
5.85E9                   0.5273098334695172       -0.6728622175801109
5.88E9                   0.4602457058546568       -0.719752148371803
5.91E9                   0.3890720610282191       -0.7599685714440468
5.94E9                   0.3144521871246966       -0.7931557106288412
5.97E9                   0.237080232652907        -0.8190237220003672
6.0E9                    0.1576746320976799       -0.8373516334095132
