% Model:              three_layers reality at 0.1mm.mph
% Version:            COMSOL 5.6.0.280
% Date:               Mar 7 2022, 09:24
% Table:              表格 1 - 全局计算 1
% freq (Hz)              real(emw.S11) (1)        imag(emw.S11) (1)
300000000                0.5608578815897375       -0.755791092748385
330000000                0.4892469278666976       -0.802458231807864
360000000                0.41391987050942697      -0.8424745724234731
390000000                0.33546424447470696      -0.8755443052912979
420000000                0.25449643577654196      -0.9014215295876936
450000000                0.17165642323837887      -0.9199138309787247
480000000                0.0876023487961417       -0.9308850885138812
510000000                0.0030049443404282176    -0.934257587270635
540000000                -0.08145815320994672     -0.9300134833639566
570000000                -0.1651081617246499      -0.9181956492434236
600000000                -0.24727094880905076     -0.8989079165554337
630000000                -0.3272828170781277      -0.8723147285826608
660000000                -0.40449623347659786     -0.8386402124278871
690000000                -0.478285452959062       -0.7981666819029789
720000000                -0.5480519856011692      -0.7512325844770857
750000000                -0.6132298553304827      -0.6982299094707449
780000000                -0.67329059873418        -0.6396010788194274
810000000                -0.7277479526621049      -0.5758353473422451
840000000                -0.776162181919142       -0.5074647440649467
870000000                -0.8181440002866328      -0.4350595921411265
900000000                -0.8533580422101203      -0.35922364953042263
930000000                -0.8815258464453612      -0.28058891785438506
960000000                -0.9024283181593371      -0.19981017119846736
990000000                -0.9159076417934888      -0.11755926028919261
1020000000               -0.9218686231989166      -0.03451925077618001
1050000000               -0.9202794463911582      0.04862154371586225
1080000000               -0.9111718371936489      0.13117557111267897
1110000000               -0.8946406333728831      0.21246203053171597
1140000000               -0.8708427680061006      0.29181277971805375
1170000000               -0.8399956799553756      0.3685780992404199
1200000000               -0.8023751721666793      0.44213225499675834
1230000000               -0.7583127448669058      0.5118788037023076
1260000000               -0.7081924367422988      0.5772555897985999
1290000000               -0.6524472123298335      0.6377393870960172
1320000000               -0.5915549385397666      0.6928501434450833
1350000000               -0.5260339969113995      0.7421547925328891
1380000000               -0.45643858128987014     0.7852706027520029
1410000000               -0.38335373255283073     0.8218680394187269
1440000000               -0.30739016356969007     0.851673122614521
1470000000               -0.22917892791775962     0.8744692692808924
1500000000               -0.1493659854759132      0.8900986142043541
1530000000               -0.06860671734378006     0.8984628101038101
1560000000               0.012439559370801946     0.899523312578663
1590000000               0.09311502838794859      0.8933011605504299
1620000000               0.17276871708912653      0.8798762673035588
1650000000               0.25076170222853095      0.8593862411996183
1680000000               0.32647213944088094      0.8320247585601704
1710000000               0.39930008037105386      0.7980395140556915
1740000000               0.46867204506037297      0.7577297763749202
1770000000               0.5340453210521698       0.7114435786912192
1800000000               0.5949119639832962       0.6595745749060915
1830000000               0.6508024781329095       0.6025585936436205
1860000000               0.7012891588949387       0.5408699224315359
1890000000               0.7459890822225579       0.47501735493311065
1920000000               0.7845667294390375       0.405540033947813
1950000000               0.8167362387492784       0.3330031227047429
1980000000               0.8422632778521013       0.2579933363167239
2010000000               0.8609665349702187       0.18111436436273515
2040000000               0.8727188285735985       0.10298221416324421
2070000000               0.8774478389972089       0.024220501830776505
2100000000               0.8751364674994471       -0.054544285305361276
2130000000               0.8658228294673909       -0.1326875368607154
2.16E9                   0.8495998864183694       -0.20959126774523568
2.19E9                   0.8266147131986966       -0.2846488648256179
2.22E9                   0.7970673784324674       -0.3572698356934465
2.25E9                   0.7612093861325363       -0.42688455525429037
2.28E9                   0.7193415920685091       -0.49294896902936786
2.31E9                   0.6718114983232543       -0.5549491323732244
2.34E9                   0.6190098923698693       -0.6124053599651063
2.37E9                   0.5613669677689517       -0.664875705924215
2.4E9                    0.4993482831743581       -0.7119586079962908
2.43E9                   0.4334509991827606       -0.7532948375837472
2.46E9                   0.364200612736401        -0.7885692110028861
2.49E9                   0.2921479839818316       -0.8175125412843347
2.52E9                   0.2178661669273236       -0.8399039800302983
2.55E9                   0.141946637259853        -0.8555734974374469
2.58E9                   0.06499482698363988      -0.8644040845988905
2.61E9                   -0.012374857732120504    -0.8663333674350757
2.64E9                   -0.08954427709442357     -0.8613545205884082
2.67E9                   -0.16589685137910806     -0.8495165114858878
2.7E9                    -0.2408227893570814      -0.8309237552176992
2.73E9                   -0.3137241964068636      -0.8057352541370766
2.76E9                   -0.38402003658165196     -0.7741632716857739
2.79E9                   -0.4511509295788889      -0.7364715691407988
2.82E9                   -0.5145837603939882      -0.6929732222858762
2.85E9                   -0.5738160735160367      -0.6440280313647704
2.88E9                   -0.6283802191632312      -0.5900395387580009
2.91E9                   -0.6778472161338295      -0.5314516727401496
2.94E9                   -0.7218302953636693      -0.46874504047333
2.97E9                   -0.7599880891543462      -0.4024328984911387
3.0E9                    -0.7920274332850085      -0.3330568338877479
3.03E9                   -0.8177057524973718      -0.26118219382693786
3.06E9                   -0.8368330038866336      -0.18739330497168483
3.09E9                   -0.8492731574576438      -0.11228852768195088
3.12E9                   -0.8549451983513026      -0.036475192325080126
3.15E9                   -0.8538236408460682      0.03943553330329447
3.18E9                   -0.8459385499839238      0.11483379561424965
3.21E9                   -0.8313750724288949      0.1891161763324214
3.24E9                   -0.8102724836171522      0.26169073438570256
3.27E9                   -0.7828227632823649      0.3319819216304747
3.3E9                    -0.7492687158327704      0.3994353277580924
3.33E9                   -0.7099016558547707      0.4635222120545683
3.36E9                   -0.6650586822769281      0.5237437821602899
3.39E9                   -0.6151195675819907      0.5796351822906627
3.42E9                   -0.5605032914642609      0.6307691550644889
3.45E9                   -0.5016642513975966      0.6767593430739195
3.48E9                   -0.43908818656392523     0.717263197871708
3.51E9                   -0.37328785624679456     0.7519844665348775
3.54E9                   -0.3047985191785336      0.7806752295787655
3.57E9                   -0.2341732660220841      0.8031374694936302
3.6E9                    -0.16197826194016365     0.8192241570394668
3.63E9                   -0.08878795906771196     0.8288398522747654
3.66E9                   -0.015180338555243013    0.8319408281826939
3.69E9                   0.058267761247268096     0.8285347352504573
3.72E9                   0.13098517981235158      0.8186798343977287
3.75E9                   0.20241078885067162      0.8024838327240476
3.78E9                   0.27199763056532283      0.7801023622953104
3.81E9                   0.33921681315574903      0.7517371468858582
3.84E9                   0.40356114852224023      0.7176339046575593
3.87E9                   0.46454853107881355      0.6780800338786189
3.9E9                    0.5217250705800794       0.6334021216970962
3.93E9                   0.5746680024224912       0.5839633016443353
3.96E9                   0.622988400672805        0.5301604668775202
3.99E9                   0.666333710629068        0.4724213283901552
4.02E9                   0.7043901003430939       0.4112012971950508
4.05E9                   0.7368846103972463       0.3469801702395782
4.08E9                   0.7635870646780021       0.28025861149598863
4.11E9                   0.784311697172404        0.21155443788133155
4.14E9                   0.7989184522468847       0.14139873890991173
4.17E9                   0.8073139269304651       0.07033187351584107
4.2E9                    0.8094519391312368       -0.001100605032830428
4.23E9                   0.8053337214219568       -0.07235204589870411
4.26E9                   0.7950077521566264       -0.14287877561042744
4.29E9                   0.7785692422688918       -0.21214411780340647
4.32E9                   0.7561592967904809       -0.2796223343718188
4.35E9                   0.7279637663794759       -0.34480247181765966
4.38E9                   0.6942117984727851       -0.4071920992996383
4.41E9                   0.655174092707322        -0.46632092357231214
4.44E9                   0.6111608628407375       -0.5217442619186886
4.47E9                   0.5625195082164641       -0.5730463492555756
4.5E9                    0.5096320014096758       -0.6198434516154208
4.53E9                   0.45291200406062837      -0.6617867560823201
4.56E9                   0.39280172916459133      -0.6985650072739148
4.59E9                   0.32976857403837134      -0.7299068629488916
4.62E9                   0.26430155326379534      -0.7555829457248004
4.65E9                   0.19690756393642384      -0.7754075740537687
4.68E9                   0.12810751584958346      -0.7892401622992776
4.71E9                   0.0584323564732971       -0.7969862854243401
4.74E9                   -0.011580984224170799    -0.7985984065247044
4.77E9                   -0.08139370883956297     -0.7940762642018748
4.8E9                    -0.15046930909487843     -0.7834669121063151
4.83E9                   -0.21827774268230504     -0.7668643973610559
4.86E9                   -0.28429960154950623     -0.7444090613354342
4.89E9                   -0.34803023266918975     -0.7162864479876395
4.92E9                   -0.4089837629465158      -0.6827258125429361
4.95E9                   -0.4666969743463959      -0.6439982353448678
4.98E9                   -0.5207329751573343      -0.6004143599160913
5.01E9                   -0.5706846191400098      -0.552321787746472
5.04E9                   -0.6161776350285096      -0.5001021726797018
5.07E9                   -0.6568734430776001      -0.44416806272617465
5.1E9                    -0.6924716500445419      -0.3849595353895805
5.13E9                   -0.72271222567392        -0.3229406639853248
5.16E9                   -0.7473773684116816      -0.25859583915080075
5.19E9                   -0.7662930632655248      -0.19242595697130838
5.22E9                   -0.77933032201766        -0.12494447887218114
5.25E9                   -0.7864060810821846      -0.056673373815666034
5.28E9                   -0.7874837239670962      0.0118610306791018
5.31E9                   -0.7825731997872044      0.08013224179476176
5.34E9                   -0.7717307268426856      0.14761777757699393
5.37E9                   -0.755058093897088       0.21380326320530385
5.4E9                    -0.7327015915461028      0.2781863969034149
5.43E9                   -0.7048506145321427      0.3402807550001639
5.46E9                   -0.6717359717213743      0.3996194246513575
5.49E9                   -0.6336279278911465      0.45575846384584867
5.52E9                   -0.5908339868445062      0.5082801896459584
5.55E9                   -0.5436964142292454      0.5567962884279424
5.58E9                   -0.4925894937279056      0.6009507300536331
5.61E9                   -0.43791651272246024     0.6404224549971084
5.64E9                   -0.3801064829171824      0.6749277922760546
5.67E9                   -0.31961061642067423     0.7042225597563747
5.7E9                    -0.2568985968098085      0.7281037995095945
5.73E9                   -0.1924547032359996      0.7464111123331162
5.76E9                   -0.12677385748965672     0.7590275767948252
5.79E9                   -0.06035766276391463     0.7658802642091166
5.82E9                   0.006289512839255629     0.7669403822642209
5.85E9                   0.07266437909265307      0.7622230876715
5.88E9                   0.13826848523596488      0.7517870001604653
5.91E9                   0.20261190238395593      0.7357334326604179
5.94E9                   0.26521682465136465      0.7142053359552062
5.97E9                   0.3256210741615393       0.6873859480557853
6.0E9                    0.38338148171292485      0.6554971405492762
