% Model:              three_layers reality at 0.1mm.mph
% Version:            COMSOL 5.6.0.280
% Date:               Feb 23 2022, 09:31
% Table:              表格 1 - 全局计算 1
% freq (Hz)              real(emw.S11) (1)        imag(emw.S11) (1)
300000000                0.6008457362856305       -0.7360823589565678
330000000                0.5342694441738857       -0.7849091033422028
360000000                0.46384839749697804      -0.8277991257779468
390000000                0.3900959663361409       -0.8644469360715276
420000000                0.31355298077516347      -0.8945916997399165
450000000                0.2347829836600397       -0.9180197447703478
480000000                0.15436752382021518      -0.9345665466441864
510000000                0.07290144897570042      -0.9441182382269562
540000000                -0.009011812174735035    -0.9466126686834416
570000000                -0.09076497457394268     -0.9420400250950819
600000000                -0.17175161069558734     -0.9304430249752298
630000000                -0.2513708316181919      -0.9119166865020372
660000000                -0.32903190865385135     -0.8866076830474173
690000000                -0.40415880506317026     -0.8547132902028672
720000000                -0.4761945881438872      -0.8164799349932061
750000000                -0.5446056894989759      -0.7722013595886339
780000000                -0.6088859822271302      -0.7222164143913562
810000000                -0.6685606443483796      -0.6669064979138905
840000000                -0.7231897787910583      -0.6066926636647085
870000000                -0.7723717619152588      -0.5420324166814433
900000000                -0.8157462939234503      -0.47341622536383393
930000000                -0.8529971273854744      -0.4013637760092699
960000000                -0.8838544520609745      -0.3264200000197066
990000000                -0.9080969170245896      -0.24915090572184517
1020000000               -0.9255532742053056      -0.17013924806479838
1050000000               -0.9361036303450135      -0.08998007129450247
1080000000               -0.9396802978180143      -0.00927616031150676
1110000000               -0.9362682379902948      0.07136656242237005
1140000000               -0.9259050943170971      0.15134365736125394
1170000000               -0.90868081581488        0.23005676864987207
1200000000               -0.8847368749809488      0.30691816831681346
1230000000               -0.8542650876944567      0.3813552074230837
1260000000               -0.8175060459020473      0.45281463910675357
1290000000               -0.7747471770415546      0.5207667794684009
1320000000               -0.726320447400626       0.5847094735594819
1350000000               -0.6725997291904925      0.6441718361888618
1380000000               -0.6139978539698663      0.698717738869026
1410000000               -0.5509633773414769      0.7479490168134253
1440000000               -0.48397708207576984     0.7915083723134891
1470000000               -0.4135482485246371      0.8290819537028611
1500000000               -0.3402107231502772      0.8604015916559464
1530000000               -0.26451881672947275     0.8852466779586372
1560000000               -0.18704306528618792     0.9034456745199977
1590000000               -0.10836588730009354     0.914877243661578
1620000000               -0.029077171136484916    0.919470993775454
1650000000               0.050230173217325993     0.9172078374857446
1680000000               0.12896466411906574      0.9081199624637402
1710000000               0.206540666461472        0.8922904180087937
1740000000               0.28238274517009504      0.8698523233680213
1770000000               0.3559299221140073       0.8409877065020217
1800000000               0.426639805602607        0.8059259846194403
1830000000               0.49399256281027776      0.7649421003557813
1860000000               0.557494707361048        0.7183543296441993
1890000000               0.6166826755018004       0.6665217796939578
1920000000               0.6711261665246617       0.6098415972797344
1950000000               0.7204312247729849       0.5487459095337721
1980000000               0.764243042851814        0.48369852091530485
2010000000               0.8022484677651239       0.4151913915329713
2040000000               0.8341781940314494       0.3437409231736783
2070000000               0.8598086303173158       0.26988408017567767
2100000000               0.8789634283737776       0.19417437318698744
2130000000               0.8915146656793923       0.117177733563378
2.16E9                   0.8973836750405685       0.039468306463333006
2.19E9                   0.8965415160617518       -0.03837581039154147
2.22E9                   0.8890090836734477       -0.11577685552049284
2.25E9                   0.8748568479232951       -0.1921616930227795
2.28E9                   0.8542042174348631       -0.2669660717628754
2.31E9                   0.8272185192489883       -0.33963881581137456
2.34E9                   0.7941135954857459       -0.4096458962556569
2.37E9                   0.7551480370329081       -0.47647432743519613
2.4E9                    0.7106231009867102       -0.5396358414185832
2.43E9                   0.6608803727410802       -0.5986703271188358
2.46E9                   0.6062992153182585       -0.6531490574985175
2.49E9                   0.5472940057444887       -0.7026777362472242
2.52E9                   0.48431112624366934      -0.7468993650232294
2.55E9                   0.41782568439211726      -0.7854968902338788
2.58E9                   0.34833796946303636      -0.8181955695764043
2.61E9                   0.2763696830383367       -0.8447650086105277
2.64E9                   0.20245999392772643      -0.865020839813634
2.67E9                   0.12716146411424933      -0.8788260342662833
2.7E9                    0.051035884960332824     -0.8860918443094449
2.73E9                   -0.025349943411677955    -0.8867783777881254
2.76E9                   -0.10142845933697747     -0.880894804406281
2.79E9                   -0.1766355838820527      -0.8684991949135263
2.82E9                   -0.2504149322219833      -0.8496979948984941
2.85E9                   -0.32222196169880946     -0.8246451368601972
2.88E9                   -0.39152802584348123     -0.7935407966603656
2.91E9                   -0.4578243039093387      -0.7566298031412018
2.94E9                   -0.520625575868152       -0.7141997125129314
2.97E9                   -0.5794738138522355      -0.666578561867435
3.0E9                    -0.6339415621960894      -0.6141323189274156
3.03E9                   -0.683635079870802       -0.5572620476480943
3.06E9                   -0.728197220844888       -0.4964008117895466
3.09E9                   -0.7673100300702598      -0.432010340738779
3.12E9                   -0.8006970350829752      -0.3645774838908551
3.15E9                   -0.8281252156908977      -0.2946104817096535
3.18E9                   -0.8494066369772636      -0.22263508298322476
3.21E9                   -0.8643997335890374      -0.14919053912552901
3.24E9                   -0.8730102362512535      -0.07482550714507089
3.27E9                   -0.8751917343426329      -9.389364058829021E-5
3.3E9                    -0.8709458713615711      0.07444932760130986
3.33E9                   -0.8603221729982575      0.148252291790776
3.36E9                   -0.8434175104204998      0.22077038047591954
3.39E9                   -0.8203752042093111      0.29147028806787834
3.42E9                   -0.7913837771348242      0.3598339860270171
3.45E9                   -0.7566753667334787      0.4253625539502891
3.48E9                   -0.7165238114259606      0.4875798477583169
3.51E9                   -0.671242426588222       0.5460359765754036
3.54E9                   -0.6211814899274392      0.6003105610878796
3.57E9                   -0.5667254580334439      0.6500157484748142
3.6E9                    -0.5082899386876291      0.6947989610558469
3.63E9                   -0.4463184456791254      0.7343453587515683
3.66E9                   -0.38127896460908595     0.7683799985746941
3.69E9                   -0.31366035943805515     0.796669677647555
3.72E9                   -0.24396865013370608     0.8190244495977135
3.75E9                   -0.1727231921654834      0.8352988073676985
3.78E9                   -0.10045278837297023     0.8453925287023584
3.81E9                   -0.027691763346483003    0.8492511836586468
3.84E9                   0.0450239706036431       0.8468663065278478
3.87E9                   0.11716082848461316      0.8382752371774906
3.9E9                    0.18819142323423252      0.8235606386913391
3.93E9                   0.2575983687258262       0.8028496990468524
3.96E9                   0.32487799313528876      0.7763130246064953
3.99E9                   0.38954394120350355      0.7441632329184217
4.02E9                   0.4511306430488293       0.7066532525443091
4.05E9                   0.5091966258975287       0.6640743389853916
4.08E9                   0.5633276441922769       0.6167538182569394
4.11E9                   0.6131396032387753       0.5650525732424909
4.14E9                   0.6582812528990427       0.5093622915891304
4.17E9                   0.698436630061465        0.45010249739036345
4.2E9                    0.7333272319462409       0.3877173913046825
4.23E9                   0.7627139057659555       0.32267252534869784
4.26E9                   0.7863984437774264       0.255451338913295
4.29E9                   0.8042248755739685       0.18655158248005
4.32E9                   0.8160804518078749       0.11648165481578454
4.35E9                   0.8218963151732634       0.04575687893970229
4.38E9                   0.8216478557924148       -0.025104258028103857
4.41E9                   0.8153547494590534       -0.09558387592455882
4.44E9                   0.8030806786635662       -0.1651684579439212
4.47E9                   0.784932738161908        -0.23335256628345116
4.5E9                    0.7610605290269817       -0.2996424906862263
4.53E9                   0.7316549475129875       -0.3635598036254657
4.56E9                   0.6969466776532439       -0.4246447960813187
4.59E9                   0.6572043989974784       -0.4824597689205544
4.62E9                   0.6127327233711729       -0.5365921559526553
4.65E9                   0.5638698767219724       -0.586657456421261
4.68E9                   0.5109851438483498       -0.6323019566785733
4.71E9                   0.45447609513412124      -0.6732052227300235
4.74E9                   0.3947656151693675       -0.7090823472473748
4.77E9                   0.3322987537992056       -0.739685936027551
4.8E9                    0.26753942069275566      -0.7648078200018257
4.83E9                   0.20096694582277924      -0.7842804796073246
4.86E9                   0.1330725297863772       -0.7979781694438358
4.89E9                   0.06435560997080607      -0.805817732743515
4.92E9                   -0.00467982940190641     -0.8077590976024154
4.95E9                   -0.07352897389695219     -0.8038054501454884
4.98E9                   -0.14168989173728816     -0.7940030834408547
5.01E9                   -0.2086672129020526      -0.7784409248480832
5.04E9                   -0.27397574524577273     -0.7572497480952983
5.07E9                   -0.3371440004504869      -0.7306010794835601
5.1E9                    -0.3977176048695443      -0.6987058098329771
5.13E9                   -0.4552625727298197      -0.661812525018034
5.16E9                   -0.5093684209768474      -0.6202055682316822
5.19E9                   -0.5596511057313726      -0.5742028471182111
5.22E9                   -0.6057557600628484      -0.524153399317911
5.25E9                   -0.647359211845485       -0.47043473168751215
5.28E9                   -0.6841722600671911      -0.4134499518125635
5.31E9                   -0.7159416894321606      -0.35362471440486526
5.34E9                   -0.7424520062183851      -0.29140400915658465
5.37E9                   -0.7635268832185373      -0.2272488186098119
5.4E9                    -0.7790303063279963      -0.16163267475060678
5.43E9                   -0.7888674190860399      -0.09503814159764801
5.46E9                   -0.7929850636461757      -0.027953248901145845
5.49E9                   -0.7913720173922107      0.03913209929081984
5.52E9                   -0.7840589246343932      0.10572971812318477
5.55E9                   -0.7711179230776608      0.1713567136507119
5.58E9                   -0.7526619657135127      0.2355390079850194
5.61E9                   -0.7288438405776496      0.2978147913756202
5.64E9                   -0.6998548935227298      0.35773787355007863
5.67E9                   -0.6659234628030097      0.41488090576155784
5.7E9                    -0.6273130386257192      0.46883844523686363
5.73E9                   -0.5843201655176529      0.5192298354645984
5.76E9                   -0.5372721094404656      0.5657018792335704
5.79E9                   -0.4865243140401277      0.6079312861678874
5.82E9                   -0.43245767054721507     0.6456268814443327
5.85E9                   -0.37547562416588276     0.6785315659179654
5.88E9                   -0.3160011376838341      0.7064240192786966
5.91E9                   -0.2544735319476776      0.7291201376282198
5.94E9                   -0.19134522347597882     0.746474196218191
5.97E9                   -0.12707838152894269     0.758379728274171
6.0E9                    -0.06214152929078161     0.7647701124096042
