% Model:              three_layers reality at 0.1mm.mph
% Version:            COMSOL 5.6.0.280
% Date:               Feb 21 2022, 20:19
% Table:              表格 1 - 全局计算 1
% freq (Hz)              real(emw.S11) (1)        imag(emw.S11) (1)
300000000                0.44822878013918876      -0.7271060512767259
330000000                0.3745804287906367       -0.7644662003100144
360000000                0.2980413340425924       -0.7946038669021548
390000000                0.21928541529264614      -0.8172879038536108
420000000                0.13901164829022666      -0.8323533261476245
450000000                0.057935569869487585     -0.8397031796907625
480000000                -0.02321870478374759     -0.8393096353518091
510000000                -0.10372611462333553     -0.8312143346579908
540000000                -0.18286800504070921     -0.815528011053213
570000000                -0.25993921665304554     -0.7924294103568352
600000000                -0.3342548989513436      -0.7621635361040813
630000000                -0.40515702031492956     -0.7250392485944284
660000000                -0.47202053742530037     -0.68142625025171
690000000                -0.5342591826195875      -0.6317514942252597
720000000                -0.5913308270121804      -0.5764950573968308
750000000                -0.6427423782516292      -0.5161855230596144
780000000                -0.6880541741342553      -0.45139492268328196
810000000                -0.7268838371653314      -0.38273328959525044
840000000                -0.7589095595174591      -0.31084288061279997
870000000                -0.7838727928860996      -0.23639212433468618
900000000                -0.8015803233309193      -0.1600693567542973
930000000                -0.8119057169152157      -0.08257640652151127
960000000                -0.8147901281309013      -0.00462209275987426
990000000                -0.8102424691253614      0.07308430117317248
1020000000               -0.7983389439892274      0.14983951525179048
1050000000               -0.7792219584138588      0.2249526998511594
1080000000               -0.7530984209984454      0.2977516423073145
1110000000               -0.7202374581851243      0.3675887751313249
1140000000               -0.6809675702498099      0.433846910964491
1170000000               -0.6356732608491086      0.49594465266600496
1200000000               -0.5847911773238804      0.5533414307515497
1230000000               -0.5288058031511355      0.6055421247420196
1260000000               -0.46824474774221586     0.6521012294645158
1290000000               -0.40367368196106046     0.6926265324071296
1320000000               -0.3356909704182858      0.726782273363479
1350000000               -0.2649220538087865      0.7542917629149817
1380000000               -0.1920136359094604      0.7749394419430535
1410000000               -0.11762773117477857     0.7885723697050694
1440000000               -0.04243562890902428     0.7951011338026273
1470000000               0.03288816984271126      0.7945001807056097
1500000000               0.10767198730957706      0.7868075709937776
1530000000               0.181252921782437        0.772124168717079
1560000000               0.25298266557316096      0.7506122793122103
1590000000               0.32223313780840734      0.7224937553434566
1620000000               0.3884018841034822       0.6880475938873103
1650000000               0.4509171983568518       0.6476070535673966
1680000000               0.5092429249282479       0.601556323221379
1710000000               0.5628829034055318       0.550326777642476
1740000000               0.6113850219140251       0.4943928590883213
1770000000               0.6543448493830365       0.4342676259405003
1800000000               0.6914088216504883       0.37049801230985085
1830000000               0.7222769612393833       0.3036598442187106
1860000000               0.7467051158777764       0.23435265934931043
1890000000               0.7645067064407137       0.16319437803747527
1920000000               0.7755539810672915       0.09081587307751436
1950000000               0.7797787787442417       0.01785548453232464
1980000000               0.7771728126196461       -0.05504647720493442
2010000000               0.7677874904425455       -0.12725320249023483
2040000000               0.7517332960401419       -0.19813679933143793
2070000000               0.7291787597753836       -0.26708364250785066
2100000000               0.7003490436385299       -0.3334996628407608
2130000000               0.6655241509567628       -0.39681561299940427
2.16E9                   0.6250367304431645       -0.45649237658434655
2.19E9                   0.5792693654142461       -0.5120264036491564
2.22E9                   0.5286511140830772       -0.5629553206929943
2.25E9                   0.47365291928242503      -0.6088636149313499
2.28E9                   0.41478143275360324      -0.6493879666497373
2.31E9                   0.35257100016188886      -0.6842213201051038
2.34E9                   0.28757424897844003      -0.7131143983496407
2.37E9                   0.22035285313583586      -0.735873624147674
2.4E9                    0.15147090709257702      -0.7523557663969476
2.43E9                   0.08149278957801923      -0.762461643064019
2.46E9                   0.010985109030453799     -0.7661322651199702
2.49E9                   -0.059480185117032396    -0.7633495422433838
2.52E9                   -0.12932499422884441     -0.7541408465283204
2.55E9                   -0.197968258660012       -0.738584683481663
2.58E9                   -0.26483248768471945     -0.7168147981699051
2.61E9                   -0.3293517905003275      -0.6890215118993797
2.64E9                   -0.39097975706465055     -0.6554504873419731
2.67E9                   -0.44919631941580235     -0.6163997458598786
2.7E9                    -0.5035133995652189      -0.572215741571435
2.73E9                   -0.5534794942464951      -0.5232890226444862
2.76E9                   -0.598683432401794       -0.47004974517758635
2.79E9                   -0.6387575036929241      -0.4129631356798796
2.82E9                   -0.67338008722297        -0.35252491673354175
2.85E9                   -0.7022778500986286      -0.2892566833884411
2.88E9                   -0.7252275450803722      -0.22370121761810027
2.91E9                   -0.7420574135373329      -0.15641773768006637
2.94E9                   -0.7526481886750966      -0.08797709071867742
2.97E9                   -0.7569336902954528      -0.01895690692859224
3.0E9                    -0.754901002851175       0.05006325853696306
3.03E9                   -0.7465902315998552      0.11850676427827836
3.06E9                   -0.7320938359308998      0.1858046667646675
3.09E9                   -0.7115555439060869      0.25140041292808324
3.12E9                   -0.6851688571765747      0.31475440411861005
3.15E9                   -0.6531751602441237      0.37534839584955404
3.18E9                   -0.6158614520743667      0.4326897002902362
3.21E9                   -0.5735577207535816      0.48631516226478433
3.24E9                   -0.5266339829353098      0.5357948832940062
3.27E9                   -0.4754970090132429      0.5807356715903659
3.3E9                    -0.42058675281492097     0.6207841975478667
3.33E9                   -0.36237250187386405     0.6556298335936295
3.36E9                   -0.3013487623933429      0.6850071537853172
3.39E9                   -0.2380308933602799      0.708698062507628
3.42E9                   -0.1729505084288251      0.7265335140352539
3.45E9                   -0.10665067333781907     0.738394777298097
3.48E9                   -0.03968094120337895     0.7442141954641504
3.51E9                   0.027407712717043786     0.7439753908752773
3.54E9                   0.09406797374876669      0.737712875352495
3.57E9                   0.15976118561870828      0.7255110455301043
3.6E9                    0.2239621489094594       0.7075025718362451
3.63E9                   0.2861636057332788       0.6838662239785873
3.66E9                   0.3458803097564161       0.6548242088668187
3.69E9                   0.4026526054382695       0.6206391225606291
3.72E9                   0.456049470566777        0.5816106330339329
3.75E9                   0.5056710067995088       0.538072016966446
3.78E9                   0.5511503933232879       0.49038667514509166
3.81E9                   0.5921553524974001       0.4389447485335781
3.84E9                   0.6283892173125367       0.384159944861241
3.87E9                   0.6595917350151848       0.32646665322783264
3.9E9                    0.6855397750040638       0.26631736448254334
3.93E9                   0.7060481116984886       0.2041803333454904
3.96E9                   0.7209704097588813       0.1405373357508906
3.99E9                   0.7302004524153365       0.07588132109106865
4.02E9                   0.7336735460975149       0.010713757544164369
4.05E9                   0.7313679397571573       -0.05445847610052919
4.08E9                   0.7233060446473968       -0.11912670347106005
4.11E9                   0.7095552430332795       -0.18278451495086143
4.14E9                   0.6902281257534555       -0.2449321451089367
4.17E9                   0.6654820783706793       -0.30508098011634455
4.2E9                    0.6355182188901847       -0.3627580111540382
4.23E9                   0.6005797557329835       -0.41751008505863463
4.26E9                   0.5609498703757213       -0.46890785840232585
4.29E9                   0.5169492325401145       -0.5165494179664841
4.32E9                   0.4689332337850667       -0.5600635735312893
4.35E9                   0.41728899064550995      -0.5991128494048388
4.38E9                   0.36243213515848094      -0.6333961988769033
4.41E9                   0.30480338954224817      -0.6626514476174479
4.44E9                   0.24486491718643305      -0.6866574483861483
4.47E9                   0.18309645213660045      -0.7052359097027369
4.5E9                    0.11999122807154415      -0.7182528510975735
4.53E9                   0.05605174912356965      -0.7256196387028904
4.56E9                   -0.008214536381624882    -0.7272935661121004
4.59E9                   -0.07229958557607362     -0.7232779642125641
4.62E9                   -0.13569905653358116     -0.7136218472007019
4.65E9                   -0.1979164789747433      -0.698419126314402
4.68E9                   -0.25846724789147163     -0.67780744243774
4.71E9                   -0.3168824147651405      -0.6519666771058112
4.74E9                   -0.372712279236817       -0.6211171937584985
4.77E9                   -0.4255298033309801      -0.5855178378035778
4.8E9                    -0.47493387132229015     -0.5454636929259842
4.83E9                   -0.5205523988782851      -0.5012835649209108
4.86E9                   -0.5620452616503335      -0.45333715531171
4.89E9                   -0.5991069789827813      -0.4020119005234848
4.92E9                   -0.631469066075167       -0.34771948493619376
4.95E9                   -0.6589019659032385      -0.29089207771739545
4.98E9                   -0.6812164916583605      -0.23197838229394718
5.01E9                   -0.6982647473479804      -0.17143961380667094
5.04E9                   -0.7099405410837383      -0.10974552744346092
5.07E9                   -0.7161793534814731      -0.0473706052670069
5.1E9                    -0.7169579611572108      0.015209528707208271
5.13E9                   -0.7122938304885875      0.07752145055038001
5.16E9                   -0.7022443798457161      0.13909707933896978
5.19E9                   -0.6869061590443636      0.19947670608046064
5.22E9                   -0.6664139271366116      0.258211998057657
5.25E9                   -0.6409395515618519      0.31486902776399345
5.28E9                   -0.6106906322044674      0.3690313050636323
5.31E9                   -0.5759087860722109      0.4203027232426001
5.34E9                   -0.5368675984394077      0.4683102988884657
5.37E9                   -0.49387031987747493     0.5127066080745544
5.4E9                    -0.4472474301514961      0.5531718852092532
5.43E9                   -0.397354182418959       0.5894158248319971
5.46E9                   -0.34456819216633594     0.6211791785379858
5.49E9                   -0.28928706859295644     0.6482352518841361
5.52E9                   -0.2319260271187088      0.6703913805990708
5.55E9                   -0.17291538704387738     0.6874904151869887
5.58E9                   -0.11269785355175195     0.6994121845190663
5.61E9                   -0.051725506036738624    0.7060748559484242
5.64E9                   0.009543540312503929     0.7074360716541085
5.67E9                   0.07064877253946965      0.7034937264683436
5.7E9                    0.13113112536819482      0.6942862689029997
5.73E9                   0.19053688905733318      0.679892458028143
5.76E9                   0.24842151544086413      0.6604305861193214
5.79E9                   0.30435318755981666      0.6360572559431605
5.82E9                   0.35791609082092307      0.6069658484095557
5.85E9                   0.4087134085241777       0.5733848081694283
5.88E9                   0.456370121945543        0.5355758171200512
5.91E9                   0.5005357010905567       0.4938318508158746
5.94E9                   0.5408867325271512       0.44847505747280714
5.97E9                   0.5771294720518771       0.3998543833022678
6.0E9                    0.6090022601045583       0.34834288765181864
