% Model:              three_layers reality at 0.1mm.mph
% Version:            COMSOL 5.6.0.280
% Date:               Mar 1 2022, 15:40
% Table:              表格 1 - 全局计算 1
% freq (Hz)              real(emw.S11) (1)        imag(emw.S11) (1)
300000000                0.6223313803299586       -0.7612491031101611
330000000                0.5528485782395439       -0.8133215775656025
360000000                0.47907315406781664      -0.8590604205071172
390000000                0.40158085129840604      -0.8981138764994232
420000000                0.32097624978227696      -0.9301822661573125
450000000                0.2378880535789504       -0.9550204056273128
480000000                0.1529641706031095       -0.9724395852949155
510000000                0.06686662904240191      -0.9823090936176598
540000000                -0.019733628032174266    -0.9845572759644627
570000000                -0.10616202690656068     -0.9791721204580068
600000000                -0.19174568339566084     -0.9662013661204528
630000000                -0.2758187158048605      -0.9457521319615361
660000000                -0.35772750696102595     -0.9179900693966684
690000000                -0.436835873445969       -0.8831380436784741
720000000                -0.5125300977488793      -0.8414743546139669
750000000                -0.584223783459845       -0.7933305096727055
780000000                -0.6513624917494903      -0.7390885674374035
810000000                -0.7134281211766414      -0.6791780722765559
840000000                -0.7699429938204296      -0.6140726050862253
870000000                -0.8204736131673056      -0.5442859785659483
900000000                -0.8646340625260902      -0.4703681080078115
930000000                -0.9020890148442199      -0.3929005925709006
960000000                -0.9325563290882656      -0.3124920435908286
990000000                -0.9558092113227318      -0.22977319957448203
1020000000               -0.9716779228310239      -0.1453918689275626
1050000000               -0.9800510214654032      -0.060007743313865075
1080000000               -0.9808761266758158      0.02571287422560538
1110000000               -0.974160203012604       0.11110238231419647
1140000000               -0.9599693610776674      0.19549719002279958
1170000000               -0.938428179331689       0.2782429772257565
1200000000               -0.9097185543699764      0.35869986230470235
1230000000               -0.8740780914720638      0.43624743437042124
1260000000               -0.8317980511600995      0.5102896087055886
1290000000               -0.7832208714759318      0.5802592656474127
1320000000               -0.7287372889966166      0.6456226359722608
1350000000               -0.6687830851663894      0.7058833978161798
1380000000               -0.6038354874321278      0.7605864533463381
1410000000               -0.5344092571414603      0.809321356635566
1440000000               -0.4610524988268589      0.8517253671485373
1470000000               -0.3843422272093988      0.8874861070710787
1500000000               -0.3048797297988863      0.9163438042847796
1530000000               -0.22328576436061098     0.9380931063957244
1560000000               -0.1401956311746826      0.9525844551114659
1590000000               -0.05625416052304928     0.9597250139783529
1620000000               0.02788934413634756      0.9594791462369383
1650000000               0.11158616697270728      0.9518684431972423
1680000000               0.19419320489560477      0.9369713071431763
1710000000               0.27507791830900336      0.9149220961818787
1740000000               0.353623169771862        0.885909841760109
1770000000               0.42923191445419867      0.8501765526913154
1800000000               0.5013317079133209       0.808015122456276
1830000000               0.5693789985290468       0.7597668593078586
1860000000               0.6328631741816818       0.7058186611525925
1890000000               0.6913103347583167       0.6465998596273433
1920000000               0.7442867647758782       0.5825787596820047
1950000000               0.7914020826454995       0.5142589030544497
1980000000               0.8323120460664382       0.44217508537922257
2010000000               0.8667209955387737       0.36688915829392593
2040000000               0.8943839211048236       0.2889856487153074
2070000000               0.9151081401930494       0.20906722848039505
2100000000               0.9287545776207612       0.12775006750241383
2130000000               0.9352386415094536       0.045659103833182973
2.16E9                   0.9345306915296767       -0.036576737154541426
2.19E9                   0.9266560974599511       -0.11832934328071572
2.22E9                   0.9116948862223702       -0.1989762059373029
2.25E9                   0.8897809736286274       -0.27790517058349024
2.28E9                   0.8611009739374833       -0.3545191131156793
2.31E9                   0.8258925793881308       -0.4282404981909914
2.34E9                   0.7844425109610822       -0.4985157593183484
2.37E9                   0.7370840670194948       -0.5648194303612962
2.4E9                    0.684194332776275        -0.6266579702489028
2.43E9                   0.6261911346093293       -0.6835732663456685
2.46E9                   0.5635298013505807       -0.7351458532153912
2.49E9                   0.496699736252992        -0.7809978988881281
2.52E9                   0.42622075722561736      -0.8207959719536874
2.55E9                   0.35263916696200576      -0.8542535458889283
2.58E9                   0.2765235569886363       -0.8811331687972412
2.61E9                   0.19846039161694176      -0.9012482377208584
2.64E9                   0.11904943464491709      -0.9144643457872279
2.67E9                   0.03889907834390112      -0.9207001942709362
2.7E9                    -0.04137837646416856     -0.9199280734867262
2.73E9                   -0.1211714493834414      -0.9121739195698484
2.76E9                   -0.1998741829298398      -0.8975169540869521
2.79E9                   -0.27689078511761256     -0.8760889133138726
2.82E9                   -0.35164017842289197     -0.8480728749436577
2.85E9                   -0.4235604216418879      -0.8137016919591734
2.88E9                   -0.49211297133286663     -0.7732560459721242
2.91E9                   -0.5567867499616711      -0.7270621353761952
2.94E9                   -0.6171019893235812      -0.675489016544853
2.97E9                   -0.6726138189925086      -0.618945619479834
3.0E9                    -0.722915571883937       -0.557877461896559
3.03E9                   -0.7676417809324643      -0.4927630885975594
3.06E9                   -0.8064708436756046      -0.42411026522012607
3.09E9                   -0.8391273342971557      -0.35245195757287817
3.12E9                   -0.8653839456938812      -0.2783421296154733
3.15E9                   -0.8850630473842257      -0.20235139457344065
3.18E9                   -0.8980378484222391      -0.12506255478534928
3.21E9                   -0.9042331579066177      -0.04706606662616412
3.24E9                   -0.9036257391285224      0.031044532765231572
3.27E9                   -0.896244256831309       0.10867720023752206
3.3E9                    -0.8821688203855228      0.1852459264846854
3.33E9                   -0.8615301289078652      0.2601752051779865
3.36E9                   -0.8345082274369381      0.33290439648003983
3.39E9                   -0.8013308862220363      0.4028919510905293
3.42E9                   -0.7622716180467708      0.469619462139512
3.45E9                   -0.7176473512558538      0.5325955137239204
3.48E9                   -0.6678157788824435      0.5913592964196226
3.51E9                   -0.6131724070501972      0.6454839618436643
3.54E9                   -0.5541473285158637      0.6945796905300019
3.57E9                   -0.4912017498150938      0.7382964499575561
3.6E9                    -0.42482430305910146     0.7763264224494882
3.63E9                   -0.35552717519220445     0.8084060864131679
3.66E9                   -0.28384208916475906     0.8343179380437511
3.69E9                   -0.21031617197377628     0.8538918447682952
3.72E9                   -0.13550774470858543     0.8670060255237545
3.75E9                   -0.059982069270313514    0.8735876567055675
3.78E9                   0.0156929144464792       0.873613106158548
3.81E9                   0.09095082829923379      0.8671078009862279
3.84E9                   0.16523104202636107      0.854145738159709
3.87E9                   0.23798277767741283      0.8348486495110476
3.9E9                    0.3086691074547767       0.8093848342510932
3.93E9                   0.37677082282805846      0.7779676724326756
3.96E9                   0.4417901547866663       0.7408538319416632
3.99E9                   0.5032543253690047       0.6983411805389825
4.02E9                   0.5607189096468925       0.650766414089899
4.05E9                   0.6137709855203127       0.59850241328456
4.08E9                   0.6620320473219405       0.5419553439435475
4.11E9                   0.7051606590601861       0.48156151996595
4.14E9                   0.7428548246301632       0.417784052221579
4.17E9                   0.774854055260812        0.3511093105501173
4.2E9                    0.8009411186453961       0.2820432284008886
4.23E9                   0.8209434584155499       0.2111074810936663
4.26E9                   0.834734276826778        0.13883556846915182
4.29E9                   0.8422332768238917       0.06576883191693886
4.32E9                   0.8434070621398985       -0.007547565461596637
4.35E9                   0.8382691957992844       -0.08056866796526208
4.38E9                   0.8268799186151071       -0.15275373861788133
4.41E9                   0.8093455305137511       -0.2235702258459391
4.44E9                   0.7858174390137652       -0.2924976584005535
4.47E9                   0.7564908811498818       -0.35903144110259755
4.5E9                    0.7216033274919795       -0.4226865239675346
4.53E9                   0.6814325795971876       -0.4830009174683779
4.56E9                   0.6362945750133253       -0.5395390275803157
4.59E9                   0.5865409167064588       -0.5918947855114434
4.62E9                   0.5325561463546397       -0.6396945488558732
4.65E9                   0.4747547832075778       -0.6825997531301756
4.68E9                   0.41357815172024426      -0.7203092953782552
4.71E9                   0.34949102235464197      -0.7525616339856619
4.74E9                   0.28297809015482384      -0.7791365913366735
4.77E9                   0.2145403160384765       -0.7998568475862075
4.8E9                    0.1446911559450996       -0.8145891151046325
4.83E9                   0.07395270400847398      -0.8232449840648246
4.86E9                   0.002851777486142737     -0.8257814308862295
4.89E9                   -0.0680840268074773      -0.8222009832720927
4.92E9                   -0.13833027291265942     -0.8125515385701383
4.95E9                   -0.20736959012312806     -0.7969258360547822
4.98E9                   -0.27469550823646255     -0.7754605881151062
5.01E9                   -0.3398161915101106      -0.7483352797677866
5.04E9                   -0.40225804118551944     -0.7157706499366309
5.07E9                   -0.46156913942039507     -0.6780268711481274
5.1E9                    -0.5173225109084346      -0.6354014463009267
5.13E9                   -0.5691191817711645      -0.5882268418429916
5.16E9                   -0.6165910176545739      -0.5368678763584379
5.19E9                   -0.659403324153014       -0.48171888265670976
5.22E9                   -0.6972571920147175      -0.42320066161162306
5.25E9                   -0.7298915687669908      -0.36175724750879545
5.28E9                   -0.7570850381350275      -0.29785250824134085
5.31E9                   -0.7786572905399822      -0.23196660820721862
5.34E9                   -0.7944702723880825      -0.16459236542924663
5.37E9                   -0.8044290076584609      -0.09623153605919144
5.4E9                    -0.8084820909916476      -0.02739105839840014
5.43E9                   -0.8066218555392027      0.04142071428524631
5.46E9                   -0.7988842207484772      0.1096977660610432
5.49E9                   -0.7853482255001705      0.17694013221054178
5.52E9                   -0.76613525155575        0.24265755189478525
5.55E9                   -0.7414079420827502      0.3063730366640274
5.58E9                   -0.711368820700646       0.36762633048953675
5.61E9                   -0.6762586182323571      0.4259772356268702
5.64E9                   -0.6363543172856414      0.4810087772167144
5.67E9                   -0.5919669287127485      0.5323301790990612
5.7E9                    -0.5434390187987195      0.5795796239858394
5.73E9                   -0.49114201095148813     0.622426773810608
5.76E9                   -0.43547328973991695     0.6605750306752267
5.79E9                   -0.3768531368600032      0.6937635249182335
5.82E9                   -0.315721527657683       0.7217688225605612
5.85E9                   -0.2525348137480294      0.7444063482031361
5.88E9                   -0.18776231394504475     0.7615315204810925
5.91E9                   -0.12188283409001742     0.7730405961793242
5.94E9                   -0.05538113686834585     0.7788712179109857
5.97E9                   0.011255615147662823     0.7790026602037758
6.0E9                    0.07754141734613605      0.7734557705174036
