% Model:              three_layers reality at 0.1mm.mph
% Version:            COMSOL 5.6.0.280
% Date:               Mar 10 2022, 15:40
% Table:              表格 1 - 全局计算 1
% freq (Hz)              real(emw.S11) (1)        imag(emw.S11) (1)
300000000                0.47149014437721387      -0.7763364044374501
330000000                0.3918032494049186       -0.8159025409555524
360000000                0.3091124604751217       -0.8475246564334719
390000000                0.22415613336593554      -0.8709854093857436
420000000                0.13769746039631095      -0.8861331293490938
450000000                0.050516224934047574     -0.892886110195836
480000000                -0.036599469753493       -0.8912353254374787
510000000                -0.12286141143274261     -0.881245822299823
540000000                -0.2074893550592222      -0.8630569688094814
570000000                -0.28971889843510656     -0.8368816789732266
600000000                -0.36880909195762723     -0.8030047122132555
630000000                -0.4440497206785131      -0.7617801264172537
660000000                -0.5147681980000521      -0.7136279552351927
690000000                -0.5803360129888617      -0.6590301763556693
720000000                -0.640174677182398       -0.5985260363134042
750000000                -0.6937611207923237      -0.5327067978318639
780000000                -0.7406324927625839      -0.4622099778615712
810000000                -0.7803903255640261      -0.3877131456195626
840000000                -0.8127040312632685      -0.30992735236296226
870000000                -0.8373137020138253      -0.22959026644081046
900000000                -0.8540321956431701      -0.14745908763735235
930000000                -0.8627464935666759      -0.06430331652563598
960000000                -0.8634183260905944      0.019102546247783937
990000000                -0.8560840673088905      0.10198629591474191
1020000000               -0.8408539091400622      0.18358524152890912
1050000000               -0.8179103311633382      0.26315327454339704
1080000000               -0.7875058897378783      0.33996771951972127
1110000000               -0.7499603564490763      0.4133359014866882
1140000000               -0.7056572418804095      0.4826013689338704
1170000000               -0.6550397465317052      0.5471497153502364
1200000000               -0.5986061854454712      0.6064139478489429
1230000000               -0.5369049378655978      0.6598793563430738
1260000000               -0.4705289769220974      0.7070878428422853
1290000000               -0.400110037594329       0.7476416764388161
1320000000               -0.3263124835756599      0.7812066459462481
1350000000               -0.24982693573308234     0.8075145884342954
1380000000               -0.17136372580028497     0.8263652785687818
1410000000               -0.09164623943344666     0.8376276700963345
1440000000               -0.011404212787344471    0.8412404872103428
1470000000               0.06863295441733062      0.8372121698845867
1500000000               0.14774280734203613      0.8256201832441653
1530000000               0.22521630633036818      0.8066097069405903
1560000000               0.30036410169136013      0.7803917259760675
1590000000               0.3725225586629668       0.7472405496181124
1620000000               0.44105948174563814      0.7074907898088924
1650000000               0.5053794912463744       0.6615338349286386
1680000000               0.5649290092568181       0.6098138586950564
1710000000               0.6192008168007821       0.5528234074655047
1740000000               0.6677381485074563       0.4910986124139338
1770000000               0.7101382966062872       0.4252140754113276
1800000000               0.7460557010905604       0.3557774797790956
1830000000               0.7752045088196514       0.28342397845543893
1860000000               0.7973605902735855       0.2088104130936447
1890000000               0.8123630089972868       0.13260941796029335
1920000000               0.8201149457862702       0.05550346156959618
1950000000               0.8205840869128505       -0.021821122795622542
1980000000               0.8138024936833624       -0.0986800707555193
2010000000               0.7998659786524783       -0.17439704443656667
2040000000               0.7789330212961794       -0.24830938520266443
2070000000               0.7512232606155362       -0.319773750163167
2100000000               0.7170155996649555       -0.38817164680443583
2130000000               0.6766459390491555       -0.45291491435509884
2.16E9                   0.6305045099281981       -0.5134512375694726
2.19E9                   0.5790326847665703       -0.569269801023704
2.22E9                   0.5227189964975895       -0.6199071553766976
2.25E9                   0.4620939184750483       -0.6649531996969464
2.28E9                   0.3977228601664596       -0.70405680587076
2.31E9                   0.33019705036417035      -0.736930040286799
2.34E9                   0.26012277774650555      -0.7633494641277073
2.37E9                   0.18811078737973919      -0.7831532537501009
2.4E9                    0.11476868030635004      -0.7962344360622436
2.43E9                   0.04069858823834434      -0.802532899730326
2.46E9                   -0.033500238172965525    -0.8020301513180617
2.49E9                   -0.10722725908509877     -0.7947493981164512
2.52E9                   -0.17987896877340115     -0.7807602635500979
2.55E9                   -0.25085178886742504     -0.7601849912396312
2.58E9                   -0.31954886706595886     -0.7332030030873253
2.61E9                   -0.3853886831588744      -0.7000523462468733
2.64E9                   -0.44781353617930164     -0.6610282054488064
2.67E9                   -0.5062968768862522      -0.6164794136747613
2.7E9                    -0.5603492382610255      -0.5668038947730835
2.73E9                   -0.6095229278571415      -0.5124436634313184
2.76E9                   -0.6534157550977762      -0.45387970101587705
2.79E9                   -0.6916740287178289      -0.39162682631160695
2.82E9                   -0.7239949818680785      -0.326228582014866
2.85E9                   -0.7501287136231004      -0.25825212362680905
2.88E9                   -0.7698796885266127      -0.18828309491080858
2.91E9                   -0.7831078082376298      -0.11692048382889997
2.94E9                   -0.789729055582648       -0.04477146521172287
2.97E9                   -0.7897157062555568      0.027553752619966673
3.0E9                    -0.7830961033758336      0.09944705147607669
3.03E9                   -0.7699539929553086      0.17030746533881638
3.06E9                   -0.7504274227368         0.23954614520901263
3.09E9                   -0.7247072120128958      0.30659118935378865
3.12E9                   -0.6930350053928935      0.3708923016934358
3.15E9                   -0.6557009284871929      0.43192524267096194
3.18E9                   -0.6130408675426691      0.48919604035058417
3.21E9                   -0.5654333976420608      0.5422449335841695
3.24E9                   -0.5132963847196043      0.5906500235922908
3.27E9                   -0.4570832852334614      0.6340306140355537
3.3E9                    -0.39727916441495537     0.6720502213923036
3.33E9                   -0.3343964504386088      0.704419236583933
3.36E9                   -0.26897043933211356     0.7308972145559467
3.39E9                   -0.20155456546765002     0.7512947615606316
3.42E9                   -0.13271545710300733     0.7654749810256427
3.45E9                   -0.06302780646316819     0.7733544304809485
3.48E9                   0.0069308996581501255    0.7749035365755685
3.51E9                   0.07658572135100955      0.7701464164428913
3.54E9                   0.14536958782363688      0.7591600645375632
3.57E9                   0.21272848776671865      0.742072886432785
3.6E9                    0.2781264025556          0.71906259382649
3.63E9                   0.3410498578821665       0.6903535134294764
3.66E9                   0.40101198582105724      0.6562133991719175
3.69E9                   0.45755601812524294      0.6169498651755694
3.72E9                   0.5102581662452546       0.5729065729200142
3.75E9                   0.5587298785806069       0.5244593118404722
3.78E9                   0.6026194996260998       0.47201211276637123
3.81E9                   0.6416133936226576       0.4159935291150335
3.84E9                   0.6754366406326725       0.35685320546111576
3.87E9                   0.7038534618534783       0.2950588151582266
3.9E9                    0.7266675670078406       0.2310933803705868
3.93E9                   0.743722617154663        0.1654528957387619
3.96E9                   0.7549029452548432       0.09864408501168485
3.99E9                   0.7601345778074965       0.031182061563330133
4.02E9                   0.7593864796721062       -0.0364123354955423
4.05E9                   0.7526718386975522       -0.10361569363118009
4.08E9                   0.7400491496730152       -0.16990572343514157
4.11E9                   0.7216228623889003       -0.23476543744893325
4.14E9                   0.6975434182244982       -0.29768765547166876
4.17E9                   0.6680065901140555       -0.3581796321301918
4.2E9                    0.6332521340050598       -0.41576760349518627
4.23E9                   0.5935618325454405       -0.47000109067993767
4.26E9                   0.5492570502463846       -0.5204568608896872
4.29E9                   0.5006959216386385       -0.5667425100469948
4.32E9                   0.44827026799167147      -0.6084996787285104
4.35E9                   0.3924022985540287       -0.6454069352268234
4.38E9                   0.3335411148974114       -0.6771823561674167
4.41E9                   0.2721590135154058       -0.7035858142992384
4.44E9                   0.2087475771045714       -0.7244209564452766
4.47E9                   0.14381355630371148      -0.7395368328075707
4.5E9                    0.0778745647142804       -0.7488291279862487
4.53E9                   0.01145463347541753      -0.7522409458094416
4.56E9                   -0.05492030802425241     -0.7497631128174791
4.59E9                   -0.12072694546518736     -0.7414339862932319
4.62E9                   -0.18544900370929832     -0.7273387786988788
4.65E9                   -0.24858150701890136     -0.7076084369107813
4.68E9                   -0.30963482178710616     -0.6824181355759271
4.71E9                   -0.368138458309303       -0.6519854521075354
4.74E9                   -0.423644639271916       -0.6165682812084904
4.77E9                   -0.47573166316605014     -0.5764625202158822
4.8E9                    -0.5240070911002429      -0.5319995218205861
4.83E9                   -0.5681107631472022      -0.4835432821450765
4.86E9                   -0.6077176131326689      -0.43148732291726577
4.89E9                   -0.6425402130584553      -0.37625124219432704
4.92E9                   -0.6723309546463409      -0.31827694440705534
4.95E9                   -0.6968837744591421      -0.2580246061305745
4.98E9                   -0.7160353516163798      -0.19596847602130507
5.01E9                   -0.7296657483869027      -0.1325926351367332
5.04E9                   -0.7376985156545104      -0.06838685030481804
5.07E9                   -0.7401003371213616      -0.003842634790267005
5.1E9                    -0.7368803259918688      0.06055041264827991
5.13E9                   -0.7280891024742712      0.12430798028409565
5.16E9                   -0.713817759686711       0.1869541812347499
5.19E9                   -0.6941967696819629      0.2480245541658825
5.22E9                   -0.6693948066761877      0.3070690271015524
5.25E9                   -0.6396174018361139      0.36365489856661615
5.28E9                   -0.6051053245374286      0.41736981238642556
5.31E9                   -0.5661326221406667      0.467824628816575
5.34E9                   -0.5230043278572141      0.5146560631666142
5.37E9                   -0.4760539259944748      0.5575289898920806
5.4E9                    -0.4256407071925297      0.5961383812576504
5.43E9                   -0.3721471355315604      0.6302109302480867
5.46E9                   -0.31597629403376576     0.6595064625102496
5.49E9                   -0.25754940153034606     0.6838192537550667
5.52E9                   -0.19730333003948283     0.7029793391272987
5.55E9                   -0.1356880153913167      0.7168538449127795
5.58E9                   -0.07316365035990735     0.7253483087576003
5.61E9                   -0.010197576056688185    0.7284078972299555
5.64E9                   0.05273916245592236      0.7260183896105076
5.67E9                   0.11517556432527397      0.7182067828310981
5.7E9                    0.17664462251791965      0.7050413923911746
5.73E9                   0.2366873166699291       0.6866313811325053
5.76E9                   0.294856472628509        0.6631257323716903
5.79E9                   0.35072034686675657      0.6347117687690421
5.82E9                   0.40386587452487127      0.6016133668788255
5.85E9                   0.4539016119746377       0.5640890055805565
5.88E9                   0.5004604654216042       0.5224297219048046
5.91E9                   0.5432023011507078       0.4769569658056898
5.94E9                   0.5818164879982056       0.4280202863307279
5.97E9                   0.6160243583159339       0.3759947659717043
6.0E9                    0.6455815200220976       0.32127814285446304
