% Model:              three_layers reality at 0.1mm.mph
% Version:            COMSOL 5.6.0.280
% Date:               Mar 10 2022, 16:35
% Table:              表格 1 - 全局计算 1
% freq (Hz)              real(emw.S11) (1)        imag(emw.S11) (1)
300000000                0.463805096378443        -0.760412840338964
330000000                0.38615608667680895      -0.799147042308014
360000000                0.3055600631825073       -0.8302018401215397
390000000                0.2227270997932637       -0.853355028315505
420000000                0.1383934383777568       -0.8684496051007188
450000000                0.05331284486477479      -0.8753974826499467
480000000                -0.031751778970139456    -0.8741817823211524
510000000                -0.11603655536852919     -0.8648579461565961
540000000                -0.19878455803359057     -0.8475538160570988
570000000                -0.279253485213889       -0.8224687861338235
600000000                -0.3567230420148979      -0.7898721083660208
630000000                -0.43050198874153944     -0.7501004179430871
660000000                -0.4999348081233693      -0.7035545381240205
690000000                -0.5644079432136001      -0.6506956217598185
720000000                -0.6233555577788492      -0.5920406872803027
750000000                -0.6762647743992087      -0.528157607790466
780000000                -0.7226803483094424      -0.45965961462332966
810000000                -0.762208740042632       -0.38719937865324155
840000000                -0.7945215549157385      -0.3114627353178686
870000000                -0.8193583234381132      -0.233162121074713
900000000                -0.836528603004806       -0.15302979069362077
930000000                -0.8459133878334972      -0.07181088554744361
960000000                -0.8474658208265311      0.009743576158465677
990000000                -0.8412112080522198      0.09088371708660975
1020000000               -0.8272463431889341      0.17086775671162388
1050000000               -0.8057381561293616      0.2489688379099989
1080000000               -0.7769217063960068      0.3244816583732912
1110000000               -0.7410975481741165      0.39672884465003255
1140000000               -0.6986284997101798      0.465067009338232
1170000000               -0.6499358552435077      0.5288924365347779
1200000000               -0.5954950823590677      0.5876463452403451
1230000000               -0.5358310524541927      0.6408196848963582
1260000000               -0.47151285542003074     0.6879574231664016
1290000000               -0.403148253160723       0.7286622913593273
1320000000               -0.3313778290026821      0.7625979589373411
1350000000               -0.25686889214912656     0.7894916144942901
1380000000               -0.18030919758676536     0.8091359368019818
1410000000               -0.10240054250507101     0.8213904456683752
1440000000               -0.023852300502279003    0.826182228393379
1470000000               0.05462504577071492      0.8235060437026581
1500000000               0.13232631402881465      0.8134238108359247
1530000000               0.20855791583038583      0.7960634971105668
1560000000               0.2826439784995719       0.7716174226514381
1590000000               0.3539322422816247       0.7403400060549109
1620000000               0.4217996828896746       0.7025449794538573
1650000000               0.4856578127905078       0.6586021058810708
1680000000               0.5449576187811881       0.6089334356939187
1710000000               0.5991940972555966       0.554009142521302
1740000000               0.6479103533721876       0.4943429821980394
1770000000               0.6907012349631465       0.43048742092136705
1800000000               0.7272164771715212       0.3630284810587007
1830000000               0.7571633392409212       0.2925803547074867
1860000000               0.7803087205521273       0.21977983635397896
1890000000               0.7964807492554962       0.14528062620099613
1920000000               0.8055698433099039       0.06974755557399821
1950000000               0.8075292510063715       -0.006149216239768779
1980000000               0.8023750855736846       -0.08173998761494516
2010000000               0.7901858763860918       -0.1563612432871589
2040000000               0.7711016665197541       -0.22936129694638974
2070000000               0.7453226910930287       -0.3001058354006005
2100000000               0.713107668718298        -0.36798337609029885
2130000000               0.6747717216309351       -0.4324106824105931
2.16E9                   0.6306838960523251       -0.49283821672475325
2.19E9                   0.5812641669132124       -0.5487557323391731
2.22E9                   0.5269796705663918       -0.5996980715905759
2.25E9                   0.46833973911980975      -0.645251078384897
2.28E9                   0.4058892162481952       -0.6850571740953272
2.31E9                   0.34019973870868037      -0.7188196019270361
2.34E9                   0.271859426066237        -0.7463038910159305
2.37E9                   0.20146268642228266      -0.7673353348975414
2.4E9                    0.1296028492268702       -0.7817927537047047
2.43E9                   0.05686979685842584      -0.7896010628808288
2.46E9                   -0.016147735063042568    -0.790726424689584
2.49E9                   -0.0888583490657         -0.7851764482238915
2.52E9                   -0.16066654723059487     -0.7730047890696794
2.55E9                   -0.2309756463485841      -0.7543171629029595
2.58E9                   -0.2991944229609646      -0.7292757877941612
2.61E9                   -0.3647454949410347      -0.6981008540555923
2.64E9                   -0.4270736050529309      -0.6610691827946382
2.67E9                   -0.4856528162895883      -0.6185109569574824
2.7E9                    -0.5399923789184734      -0.5708054117820669
2.73E9                   -0.5896414210647217      -0.5183760800009347
2.76E9                   -0.6341927196390559      -0.46168589569759455
2.79E9                   -0.6732857729478989      -0.4012322711434618
2.82E9                   -0.7066093228798398      -0.33754216742992527
2.85E9                   -0.7339034092759716      -0.27116714719594687
2.88E9                   -0.7549609944204215      -0.2026783953350773
2.91E9                   -0.7696291693571298      -0.1326617030119403
2.94E9                   -0.7778099408114694      -0.06171242202411249
2.97E9                   -0.7794605926891491      0.009569592790722795
3.0E9                    -0.7745936162132611      0.08058502717544677
3.03E9                   -0.7632762056006482      0.15074010530280724
3.06E9                   -0.7456293204857536      0.21945150630275007
3.09E9                   -0.7218263213853846      0.2861511621716891
3.12E9                   -0.6920911897609504      0.35029089968689
3.15E9                   -0.6566963491817741      0.4113468906140019
3.18E9                   -0.6159601082103829      0.4688238774472784
3.21E9                   -0.5702437482297833      0.5222591460517678
3.24E9                   -0.5199482802755456      0.5712262207791029
3.27E9                   -0.46551089375612514     0.6153382612673649
3.3E9                    -0.4074011172130545      0.6542511419563285
3.33E9                   -0.3461167080192524      0.6876661944823189
3.36E9                   -0.2821792854526745      0.7153325892244103
3.39E9                   -0.21612972166276834     0.7370493255639694
3.42E9                   -0.14852330938930916     0.7526667919108031
3.45E9                   -0.07992473503989661     0.7620878483176869
3.48E9                   -0.010902901458775994    0.7652683791560206
3.51E9                   0.05797433434213772      0.7622172641798874
3.54E9                   0.12614542007231985      0.7529957265687379
3.57E9                   0.19306025423590045      0.737716037854466
3.6E9                    0.2581850971150246       0.7165395911564326
3.63E9                   0.32100712464931613      0.6896743913497497
3.66E9                   0.38103851842199854      0.6573720466573535
3.69E9                   0.4378200122237697       0.6199243737871086
3.72E9                   0.49092384898465247      0.5776597448571692
3.75E9                   0.5399561354975143       0.5309393107208202
3.78E9                   0.5845586155629466       0.48015323612836824
3.81E9                   0.6244099188649099       0.4257170786330582
3.84E9                   0.6592263872410182       0.36806842906176873
3.87E9                   0.6887626278317204       0.30766389555763685
3.9E9                    0.7128119786429665       0.24497644763152163
3.93E9                   0.7312070739192997       0.18049304766216945
3.96E9                   0.743820648847688        0.11471240765084889
3.99E9                   0.7505666282705008       0.04814265124803227
4.02E9                   0.7514014269886311       -0.018701340011329167
4.05E9                   0.7463252863903009       -0.08530105663750728
4.08E9                   0.7353834154048443       -0.15113802381697294
4.11E9                   0.7186667072966721       -0.21569793943770554
4.14E9                   0.6963118601106626       -0.27847513857366046
4.17E9                   0.6685008154168941       -0.33897718727352466
4.2E9                    0.6354595202344342       -0.3967294082644872
4.23E9                   0.5974560879265184       -0.4512791797862174
4.26E9                   0.554798472071465        -0.5021999087658826
4.29E9                   0.5078317705028591       -0.5490946411041576
4.32E9                   0.4569352523532185       -0.5915993182690383
4.35E9                   0.40251916296408335      -0.6293857113853356
4.38E9                   0.3450213253359369       -0.6621640612624868
4.41E9                   0.28490353388562506      -0.6896854329817974
4.44E9                   0.22264773134373234      -0.7117437679560916
4.47E9                   0.1587519704172868       -0.7281775950967652
4.5E9                    0.09372618213111963      -0.7388713519342369
4.53E9                   0.028087795665592098     -0.7437562678979227
4.56E9                   -0.037642725573921614    -0.742810774116967
4.59E9                   -0.10294635364773388     -0.7360604243553823
4.62E9                   -0.16730988972124905     -0.7235773369715429
4.65E9                   -0.23023020776958056     -0.705479193790151
4.68E9                   -0.2912182946007295      -0.6819278525024436
4.71E9                   -0.3498030615401595      -0.6531276377498504
4.74E9                   -0.40553493366146914     -0.6193233672035438
4.77E9                   -0.4579892427508596      -0.5807981434546269
4.8E9                    -0.5067694509452123      -0.5378709088238386
4.83E9                   -0.551510210745992       -0.49089373209684406
4.86E9                   -0.5918802309285177      -0.4402487867389896
4.89E9                   -0.6275848809699712      -0.38634499494832863
4.92E9                   -0.6583684429698956      -0.3296143470290655
4.95E9                   -0.6840159184194571      -0.2705079500824174
4.98E9                   -0.7043543185533458      -0.2094919014253629
5.01E9                   -0.7192534069365624      -0.14704310987294866
5.04E9                   -0.7286259133129414      -0.08364519518304264
5.07E9                   -0.7324272887150975      -0.01978457877348519
5.1E9                    -0.7306551114574819      0.04405316268878862
5.13E9                   -0.723348268809375       0.10738666854862378
5.16E9                   -0.7105860199011497      0.169741940543434
5.19E9                   -0.6924869915361148      0.2306553581912244
5.22E9                   -0.6692080858534007      0.28967666061728203
5.25E9                   -0.6409432169583393      0.34637194833544266
5.28E9                   -0.607921773659866       0.4003266826076468
5.31E9                   -0.570406740764048       0.4511485877002052
5.34E9                   -0.5286924866963119      0.4984703295269398
5.37E9                   -0.48310230346772337     0.541951869322695
5.4E9                    -0.43398582831297783     0.581282459900286
5.43E9                   -0.38171646694457834     0.6161823309268527
5.46E9                   -0.3266888850516467      0.6464041642493031
5.49E9                   -0.26931656300127677     0.6717344726806737
5.52E9                   -0.2100293459519474      0.6919949673114086
5.55E9                   -0.14927088526736032     0.7070439440461957
5.58E9                   -0.08749586292019523     0.7167776573840527
5.61E9                   -0.025166915687266745    0.7211315930820731
5.64E9                   0.03724877545104057      0.7200815116121814
5.67E9                   0.09928320083466105      0.7136441198200338
5.7E9                    0.1604714436427946       0.701877246773146
5.73E9                   0.22035565302356572      0.6848794549160162
5.76E9                   0.2784888953438376       0.6627891002525753
5.79E9                   0.3344387429935868       0.6357829388544225
5.82E9                   0.3877905383733511       0.6040744255882937
5.85E9                   0.4381503610245876       0.5679118407159609
5.88E9                   0.4851477860467284       0.5275763175007775
5.91E9                   0.5284385269893029       0.48337976383866366
5.94E9                   0.5677070130914217       0.4356626125320858
5.97E9                   0.6026688879959959       0.38479131869335886
6.0E9                    0.6330733642005563       0.3311555445236065
