% Model:              three_layers reality at 0.1mm.mph
% Version:            COMSOL 5.6.0.280
% Date:               Mar 2 2022, 11:26
% Table:              表格 1 - 全局计算 1
% freq (Hz)              real(emw.S11) (1)        imag(emw.S11) (1)
300000000                0.4236529191098871       -0.7677584042732427
330000000                0.34287184503693224      -0.8033671043243761
360000000                0.2594117343897661       -0.8307872229575479
390000000                0.17405277850167558      -0.8498138528437331
420000000                0.08760073705001332      -0.8603191698070296
450000000                8.762199015313499E-4     -0.8622552155503392
480000000                -0.08529539568710974     -0.8556552907882026
510000000                -0.1700935612193636      -0.8406341366460275
540000000                -0.2527117225769788      -0.8173870253951026
570000000                -0.3323660581984771      -0.7861878520730116
600000000                -0.4083037650223724      -0.7473863040324813
630000000                -0.47981085046607375     -0.7014041794107667
660000000                -0.5462193819431409      -0.6487309240115414
690000000                -0.6069141424614489      -0.5899184575478008
720000000                -0.6613386426489823      -0.5255753624355
750000000                -0.7090004425290086      -0.45636051178036596
780000000                -0.7494757421689029      -0.38297621601978005
810000000                -0.7824132067410923      -0.30616097046242846
840000000                -0.8075369988418744      -0.22668188829396207
870000000                -0.8246489990858152      -0.14532690495892156
900000000                -0.8336302043729171      -0.06289684034727983
930000000                -0.8344413016129659      0.01980259454082605
960000000                -0.8271224234954296      0.10196876143679452
990000000                -0.8117921011779325      0.18280994580457602
1020000000               -0.7886454369537182      0.26155301446832485
1050000000               -0.7579515278064002      0.3374508031009617
1080000000               -0.720050177998332       0.40978916135138443
1110000000               -0.6753479456376723      0.4778935881486799
1140000000               -0.6243135742103928      0.5411353958409804
1170000000               -0.5674728654692974      0.5989373478891887
1200000000               -0.5054030547444531      0.650778721517682
1230000000               -0.43872675346925033     0.6961997539958261
1260000000               -0.36810552693342435     0.7348054382385719
1290000000               -0.29423317726128656     0.7662686411881191
1320000000               -0.21782880326720733     0.7903325257142737
1350000000               -0.1396297091987984      0.8068122644931256
1380000000               -0.06038423440073153     0.8155960415810566
1410000000               0.019155425114306547     0.8166453447201049
1440000000               0.09824033379009887      0.8099945583261152
1470000000               0.1761318051908045       0.7957498737565761
1500000000               0.2521081979946148       0.7740875397500027
1530000000               0.32547145850907033      0.7452514817267839
1560000000               0.3955533528323235       0.7095503240490075
1590000000               0.4617213361610697       0.6673538541869035
1620000000               0.5233840114351251       0.6190889721311404
1650000000               0.5799961346862134       0.5652351721407328
1680000000               0.6310631296235333       0.506319607299358
1710000000               0.6761450797290529       0.44291178992663877
1740000000               0.7148601717607342       0.3756179831840737
1770000000               0.746887570588201        0.30507534069449266
1800000000               0.7719697113156614       0.23194585203943996
1830000000               0.7899140009382762       0.15691015242999443
1860000000               0.800593928239335        0.08066125437422594
1890000000               0.8039495872729262       0.0038982581916022505
1920000000               0.7999876267301886       -0.07267990400877666
1950000000               0.7887806446236202       -0.14838064008246474
1980000000               0.7704660549664525       -0.22252373994029462
2010000000               0.7452444599234888       -0.29444725154099727
2040000000               0.7133775661549611       -0.3635131671394975
2070000000               0.6751856851322867       -0.42911291499864695
2100000000               0.6310448494010267       -0.490672676985883
2130000000               0.5813835514183844       -0.5476585833417551
2.16E9                   0.526679056779663        -0.5995818634052971
2.19E9                   0.46745314593815124      -0.6460040335908491
2.22E9                   0.40426699741405586      -0.6865421352664615
2.25E9                   0.33771478234905583      -0.7208738269756586
2.28E9                   0.268415525368345        -0.7487417324525083
2.31E9                   0.19700313279859288      -0.7699559179964741
2.34E9                   0.12411540116412444      -0.7843930743845428
2.37E9                   0.050384098929217205     -0.7919915427775961
2.4E9                    -0.0235710866024915      -0.7927431282643491
2.43E9                   -0.09714307086717328     -0.7866848885606514
2.46E9                   -0.1697336410064157      -0.7738947825979885
2.49E9                   -0.2407493955466823      -0.7544929795761852
2.52E9                   -0.3096012482681052      -0.7286471870278525
2.55E9                   -0.37570882390938776     -0.6965783919478822
2.58E9                   -0.43850835733339316     -0.6585640646636316
2.61E9                   -0.497461682628745       -0.6149378635547836
2.64E9                   -0.5520644528729751      -0.5660864580206088
2.67E9                   -0.6018527838144041      -0.5124446245788877
2.7E9                    -0.6464082897886334      -0.4544895891368104
2.73E9                   -0.6853618127128331      -0.39273519171770216
2.76E9                   -0.7183961820619441      -0.32772612436997034
2.79E9                   -0.745248261511871       -0.2600323061720911
2.82E9                   -0.7657104397661193      -0.19024338092970855
2.85E9                   -0.7796316482763044      -0.11896330488459049
2.88E9                   -0.7869179418930212      -0.04680500008851982
2.91E9                   -0.7875326537441869      0.025614935384982662
2.94E9                   -0.7814961249296357      0.09768145401937983
2.97E9                   -0.768885007065607       0.1687862039953448
3.0E9                    -0.7498311375658127      0.23833256624832524
3.03E9                   -0.7245199916593436      0.3057405514181153
3.06E9                   -0.6931887202357679      0.3704515219970621
3.09E9                   -0.6561237880754034      0.4319327041359513
3.12E9                   -0.6136582322087762      0.48968145487546116
3.15E9                   -0.5661685647180726      0.5432292531831675
3.18E9                   -0.5140713476000711      0.5921453871897383
3.21E9                   -0.45781946896122855     0.6360403146372304
3.24E9                   -0.3978981495713262      0.6745686779942814
3.27E9                   -0.3348207065866299      0.7074319590741855
3.3E9                    -0.26912409812775623     0.7343807590065774
3.33E9                   -0.2013642688697237      0.7552166878665251
3.36E9                   -0.13211131530088593     0.76979384341357
3.39E9                   -0.06194449061580745     0.7780198514803592
3.42E9                   0.008552924503106142     0.779856432569316
3.45E9                   0.07879884716232938      0.775319452698902
3.48E9                   0.14821765817482577      0.7644784143328971
3.51E9                   0.21624543189542234      0.747455348558721
3.54E9                   0.28233503153087586      0.724423085251292
3.57E9                   0.34596095458504944      0.6956029045384642
3.6E9                    0.4066238069079674       0.6612616082421019
3.63E9                   0.46385429254312616      0.6217080883312902
3.66E9                   0.5172166307426048       0.5772895029357596
3.69E9                   0.5663113464065841       0.5283871925933074
3.72E9                   0.610777418888408        0.47541247785669083
3.75E9                   0.6502938108892835       0.4188024770055413
3.78E9                   0.6845804335552359       0.35901607402014407
3.81E9                   0.7133986399260572       0.2965301525482118
3.84E9                   0.7365513787243739       0.23183618493175184
3.87E9                   0.7538831775969812       0.16543721661507985
3.9E9                    0.765280142296658        0.09784521215788387
3.93E9                   0.7706701361572765       0.029578641200859148
3.96E9                   0.7700232334131993       -0.03883989212813242
3.99E9                   0.7633524318600465       -0.10688620453962923
4.02E9                   0.7507144956766543       -0.17403747208702122
4.05E9                   0.7322107145559777       -0.2397756645012304
4.08E9                   0.7079873365907929       -0.3035914724147081
4.11E9                   0.6782354644943415       -0.3649886144911123
4.14E9                   0.643190282231133        -0.42348833656170215
4.17E9                   0.6031295752235377       -0.4786338892802223
4.2E9                    0.5583715949502797       -0.5299947922548834
4.23E9                   0.5092723783363512       -0.5771707470146173
4.26E9                   0.45622265543455254      -0.6197951282594936
4.29E9                   0.3996444677254761       -0.6575380434408626
4.32E9                   0.33998758496097853      -0.6901089903322449
4.35E9                   0.2777257664957075       -0.7172591549878118
4.38E9                   0.2133528781802042       -0.7387833816575103
4.41E9                   0.1473788578710032       -0.7545218215852779
4.44E9                   0.08032552337511607      -0.7643612411817391
4.47E9                   0.01272223190545585      -0.7682359513134868
4.5E9                    -0.05489857757103778     -0.7661283130182674
4.53E9                   -0.12200590532875905     -0.7580687809639752
4.56E9                   -0.18807470418943986     -0.7441354619855458
4.59E9                   -0.2525903049837588      -0.724453188747847
4.62E9                   -0.3150526754467502      -0.6991921343140326
4.65E9                   -0.37498044677876197     -0.6685660175137558
4.68E9                   -0.43191466628515596     -0.6328299654020857
4.71E9                   -0.4854222650956273      -0.5922781014298578
4.74E9                   -0.5350992580919592      -0.5472409128416001
4.77E9                   -0.5805737078651036      -0.49808242120137236
4.8E9                    -0.621508477832768       -0.4451971464477489
4.83E9                   -0.6576037722856087      -0.3890068317436206
4.86E9                   -0.688599423055465       -0.32995689503386993
4.89E9                   -0.7142768489018881      -0.26851259634611674
4.92E9                   -0.7344605979740134      -0.20515495030454584
4.95E9                   -0.749019392044745       -0.1403764584857907
4.98E9                   -0.7578666221825864      -0.07467677287098985
5.01E9                   -0.7609602919624447      -0.00855842057716842
5.04E9                   -0.7583024567383716      0.057477284513066364
5.07E9                   -0.7499382547216351      0.12293404693600514
5.1E9                    -0.7359546554827257      0.18732406638355614
5.13E9                   -0.7164790524333801      0.2501712040249638
5.16E9                   -0.6916777913479839      0.3110139142902916
5.19E9                   -0.661754662517383       0.369408048454196
5.22E9                   -0.6269493106789884      0.4249296221775343
5.25E9                   -0.5875354659944286      0.47717758032542074
5.28E9                   -0.543818897883724       0.5257765121606074
5.31E9                   -0.49613504595591795     0.5703792068967166
5.34E9                   -0.4448463643644443      0.6106689263151812
5.37E9                   -0.3903394867675374      0.6463613148800196
5.4E9                    -0.3330223447153465      0.6772059459051765
5.43E9                   -0.27332134363068994     0.7029875770976348
5.46E9                   -0.21167863488382946     0.7235272287042909
5.49E9                   -0.1485494495411901      0.7386831913538461
5.52E9                   -0.08439940560739707     0.7483520270193917
5.55E9                   -0.01970167936424083     0.7524695643320576
5.58E9                   0.045066056533170064     0.7510118275468918
5.61E9                   0.10942498662785011      0.7439957902279817
5.64E9                   0.17289879912846065      0.7314798185816889
5.67E9                   0.2350175604052286       0.7135636714804476
5.7E9                    0.2953216902222245       0.6903879593553713
5.73E9                   0.3533658702101704       0.6621330312285691
5.76E9                   0.40872271965738066      0.6290173439724978
5.79E9                   0.4609861250231447       0.5912954409270971
5.82E9                   0.5097741971954853       0.5492556950970087
5.85E9                   0.5547319156369881       0.5032179400478893
5.88E9                   0.5955335614152609       0.4535310362539653
5.91E9                   0.6318850261819127       0.4005703416110154
5.94E9                   0.663526027464981        0.34473500891115116
5.97E9                   0.6902321954812675       0.28644503304265695
6.0E9                    0.7118169504609757       0.22613800507313508
