% Model:              three_layers reality at 0.1mm.mph
% Version:            COMSOL 5.6.0.280
% Date:               Feb 24 2022, 19:39
% Table:              表格 1 - 全局计算 1
% freq (Hz)              real(emw.S11) (1)        imag(emw.S11) (1)
300000000                0.540513563591391        -0.7280555406142393
330000000                0.47184467074835723      -0.7727272180902947
360000000                0.39961966868840426      -0.8110658742032162
390000000                0.32439961993682637      -0.8427801480250212
420000000                0.24677401097979035      -0.8676295799411625
450000000                0.16735504455606912      -0.885427072413747
480000000                0.08677206910427043      -0.8960408651566157
510000000                0.0056660514832133305    -0.8993960226847175
540000000                -0.07531594510469244     -0.8954754285795046
570000000                -0.15552628371749863     -0.8843202797512841
600000000                -0.23432226295026873     -0.8660300746579206
630000000                -0.3110715860578453      -0.8407620916104439
660000000                -0.38515775564163035     -0.808730356257838
690000000                -0.455985353149883       -0.7702041014868158
720000000                -0.5229851600438624      -0.7255057271978457
750000000                -0.5856190748839267      -0.6750082725103903
780000000                -0.643384780052884       -0.6191324181623442
810000000                -0.6958201124043004      -0.5583430421449866
840000000                -0.7425070934107658      -0.49314535698356965
870000000                -0.7830755766114126      -0.4240806624656485
900000000                -0.8172064735265598      -0.35172175237363357
930000000                -0.8446345229025258      -0.27666801872004515
960000000                -0.8651505730749585      -0.19954030065771608
990000000                -0.8786033521409133      -0.1209755293869018
1020000000               -0.8849007067058428      -0.04162122256539061
1050000000               -0.8840102958731964      0.037870115518004004
1080000000               -0.8759597337301979      0.11684663095547339
1110000000               -0.8608361800649282      0.1946627367448559
1140000000               -0.8387853856626308      0.27068465142547554
1170000000               -0.8100102049863042      0.3442958039858462
1200000000               -0.7747685952844112      0.41490205105342715
1230000000               -0.7333711270254583      0.48193665535588476
1260000000               -0.6861780359246007      0.5448649780483178
1290000000               -0.6335958517551002      0.6031888414891421
1320000000               -0.5760736431996007      0.6564505240534215
1350000000               -0.5140989215942378      0.7042363534341822
1380000000               -0.44819324923117887     0.7461798703709941
1410000000               -0.37890759966602605     0.7819645405127105
1440000000               -0.306817519117742       0.8113259974828217
1470000000               -0.23251813816744793     0.8340538061906687
1500000000               -0.15661908315313566     0.8499927406588071
1530000000               -0.07973933558140588     0.8590435760866483
1560000000               -0.002502086650634361    0.8611633997197634
1590000000               0.07447036807009742      0.856365449734994
1620000000               0.15056165089979318      0.8447184954714321
1650000000               0.22516620134179244      0.8263457760634156
1680000000               0.29769401512149296      0.801423517728108
1710000000               0.3675751891410428       0.770179052699204
1740000000               0.43426424155882093      0.7328885650493018
1770000000               0.49724417966474643      0.6898744904229859
1800000000               0.5560302913451626       0.6415025981002052
1830000000               0.6101736393208097       0.5881787847067079
1860000000               0.6592642402373219       0.5303456095772002
1890000000               0.7029339137072501       0.46847860206405145
1920000000               0.7408587891621082       0.4030823711021155
1950000000               0.772761460839411        0.33468654727580616
1980000000               0.7984127836796777       0.2638415872458484
2010000000               0.8176333049936908       0.19111447007246657
2040000000               0.8302943288347532       0.11708431435000083
2070000000               0.8363186117679362       0.04233794472434589
2100000000               0.8356806905278167       -0.03253456444773857
2130000000               0.8284068436215279       -0.10694434087917015
2.16E9                   0.8145746905199958       -0.180308134889131
2.19E9                   0.794312433593748        -0.2520526827159488
2.22E9                   0.7677977493915566       -0.3216189872776503
2.25E9                   0.735256337261864        -0.3884664920751038
2.28E9                   0.696960134443393        -0.45207712515258525
2.31E9                   0.653225207524254        -0.511959191426452
2.34E9                   0.6044093300368787       -0.5676510934933953
2.37E9                   0.550909254547706        -0.6187248624650892
2.4E9                    0.49315768419947936      -0.6647894807846964
2.43E9                   0.4316199432909109       -0.705493976223847
2.46E9                   0.3667903404800624       -0.7405302574910118
2.49E9                   0.2991882163366437       -0.7696356441025275
2.52E9                   0.2293536786404264       -0.7925950167285013
2.55E9                   0.15784306551405403      -0.8092424893572558
2.58E9                   0.08522424206944718      -0.8194625055104094
2.61E9                   0.01207190723241336      -0.8231903184809615
2.64E9                   -0.06103689211560237     -0.820411935040108
2.67E9                   -0.13352692818282907     -0.8111637268069565
2.7E9                    -0.204828704239654       -0.7955319410719947
2.73E9                   -0.2743823260053274      -0.7736522192802017
2.76E9                   -0.3416415522241503      -0.7457090309322219
2.79E9                   -0.40607810183500903     -0.711934800120184
2.82E9                   -0.46718612183976477     -0.6726085181082498
2.85E9                   -0.5244866276788772      -0.628053750129732
2.88E9                   -0.5775317370039368      -0.5786360609473532
2.91E9                   -0.6259085787638967      -0.52475994570022
2.94E9                   -0.6692428197648862      -0.46686536204159657
2.97E9                   -0.7072017877716978      -0.40542394272274684
3.0E9                    -0.7394971845135085      -0.3409349476525596
3.03E9                   -0.7658873841211993      -0.2739210002371209
3.06E9                   -0.7861793100759582      -0.20492364656682371
3.09E9                   -0.8002298820296908      -0.13449877444749456
3.12E9                   -0.8079470236931915      -0.06321193075072916
3.15E9                   -0.8092902249612703      0.008366422480795471
3.18E9                   -0.8042706547917011      0.0796656709499263
3.21E9                   -0.7929508255745764      0.15011978666787865
3.24E9                   -0.7754438144267776      0.21917199867779216
3.27E9                   -0.7519120515828253      0.2862793530128524
3.3E9                    -0.7225656906317237      0.350917120455484
3.33E9                   -0.6876605796804391      0.41258301252253865
3.36E9                   -0.6474958564225176      0.47080116875779965
3.39E9                   -0.602411193697709       0.5251258811477566
3.42E9                   -0.5527837252783802      0.5751450247742456
3.45E9                   -0.499024684385136       0.6204831673364344
3.48E9                   -0.4415757898258913      0.6608043338738501
3.51E9                   -0.3809054166231214      0.6958144070218034
3.54E9                   -0.317504589382952       0.7252631473693809
3.57E9                   -0.2518828377354167      0.7489458227532148
3.6E9                    -0.1845639535160135      0.7667044398158459
3.63E9                   -0.11608168914636147     0.778428575627542
3.66E9                   -0.046975435750237264    0.7840558115072734
3.69E9                   0.02221408209323901      0.7835717752057157
3.72E9                   0.09094906041191263      0.7770098010465181
3.75E9                   0.1586987866226613       0.7644502201863747
3.78E9                   0.22494369770643063      0.7460192948906617
3.81E9                   0.28917929842778456      0.7218878116278372
3.84E9                   0.35091991355528745      0.6922693483927138
3.87E9                   0.4097022484478672       0.6574182324896267
3.9E9                    0.4650887320686174       0.6176272066678454
3.93E9                   0.5166706161610586       0.5732248244814087
3.96E9                   0.5640708048299251       0.5245726001504515
3.99E9                   0.6069463910824656       0.47206194362353693
4.02E9                   0.6449908818148167       0.4161109170081139
4.05E9                   0.6779361004832603       0.3571608523694335
4.08E9                   0.7055537662988386       0.2956728715202531
4.11E9                   0.7276567584221078       0.23212434438950763
4.14E9                   0.7441000801935559       0.16700531469066282
4.17E9                   0.7547815401334774       0.10081491160518444
4.2E9                    0.7596421626081856       0.034057758007927166
4.23E9                   0.7586663340693086       -0.03275961802229278
4.26E9                   0.7518816841828144       -0.0991323599499708
4.29E9                   0.7393586983111199       -0.16456083416316664
4.32E9                   0.7212100596078369       -0.22855413730327037
4.35E9                   0.6975897236315927       -0.29063353901705996
4.38E9                   0.668691732519929        -0.3503358415294461
4.41E9                   0.6347487768336983       -0.4072166415038348
4.44E9                   0.5960305106523835       -0.46085348271129184
4.47E9                   0.5528416212448274       -0.5108488876667022
4.5E9                    0.5055196514068335       -0.5568332524303288
4.53E9                   0.4544325725759077       -0.5984675824520092
4.56E9                   0.3999761108293125       -0.6354460412679411
4.59E9                   0.34257083488591483      -0.6674982800565437
4.62E9                   0.2826590237209981       -0.6943915156395434
4.65E9                   0.22070133942343093      -0.7159323275917916
4.68E9                   0.15717333726331156      -0.7319681509125234
4.71E9                   0.09256184838439802      -0.7423884482556106
4.74E9                   0.02736127102101751      -0.7471255534436818
4.77E9                   -0.03793019640630551     -0.7461551845604494
4.8E9                    -0.10281435126621014     -0.7394966289159086
4.83E9                   -0.16679678722457184     -0.7272126031304383
4.86E9                   -0.22939067752665931     -0.7094087899814014
4.89E9                   -0.29012051941934747     -0.6862330511489544
4.92E9                   -0.3485258154794326      -0.6578743133694456
4.95E9                   -0.40416466357447156     -0.624561126099349
4.98E9                   -0.4566172231664067      -0.5865598918933226
5.01E9                   -0.5054890229003209      -0.5441727757266956
5.04E9                   -0.5504140733633246      -0.497735305590602
5.07E9                   -0.5910577497023859      -0.44761368308872246
5.1E9                    -0.6271194113001477      -0.3942018289712581
5.13E9                   -0.6583347298740965      -0.3379181942210675
5.16E9                   -0.6844777033347573      -0.27920237171012946
5.19E9                   -0.7053623399766562      -0.21851154573036558
5.22E9                   -0.7208440050196588      -0.15631681594034644
5.25E9                   -0.7308204271851955      -0.09309942862117014
5.28E9                   -0.7352323652200603      -0.02934694296756143
5.31E9                   -0.7340639326331951      0.03445064369031893
5.34E9                   -0.7273425752017855      0.09780478801161588
5.37E9                   -0.7151386931055265      0.16023228232563116
5.4E9                    -0.6975649005591604      0.22125909130164892
5.43E9                   -0.6747749213801074      0.2804241027574261
5.46E9                   -0.6469621277703248      0.33728274833428773
5.49E9                   -0.6143577394791491      0.391410450356669
5.52E9                   -0.5772287096579837      0.4424058551494028
5.55E9                   -0.5358753308227295      0.48989381995958725
5.58E9                   -0.4906285991882469      0.5335281289643847
5.61E9                   -0.44184737739402175     0.5729939236367431
5.64E9                   -0.38991539385585733     0.6080098425124816
5.67E9                   -0.3352381109237089      0.6383298736217573
5.7E9                    -0.27823948465099024     0.6637449266748441
5.73E9                   -0.21935862928913485     0.6840841293207759
5.76E9                   -0.159046394464227       0.6992158427874596
5.79E9                   -0.09776186651234707     0.7090483812163012
5.82E9                   -0.03596881745162115     0.7135304129716329
5.85E9                   0.02586785987757061      0.7126510263829419
5.88E9                   0.08728568195851648      0.7064394564447817
5.91E9                   0.14782802198135878      0.6949644868853918
5.94E9                   0.20704743669516806      0.6783335559211108
5.97E9                   0.2645088497518712       0.6566915993457177
6.0E9                    0.3197925817440552       0.6302196616445453
