% Model:              three_layers reality at 0.1mm.mph
% Version:            COMSOL 5.6.0.280
% Date:               Mar 7 2022, 17:31
% Table:              表格 1 - 全局计算 1
% freq (Hz)              real(emw.S11) (1)        imag(emw.S11) (1)
300000000                0.4998779851233728       -0.7925009360101872
330000000                0.41925535326654695      -0.8353706902241479
360000000                0.3351875183911007       -0.8702157969024746
390000000                0.24843649075063326      -0.8967643450414693
420000000                0.15979215211736122      -0.9148157784697825
450000000                0.070063776128349        -0.9242444396996397
480000000                -0.019928399880811833    -0.9250018513075393
510000000                -0.10936152978084515     -0.9171178898542158
540000000                -0.19741840036311606     -0.9007009542011386
570000000                -0.28329550729142705     -0.8759372015649863
600000000                -0.3662109062655372      -0.8430889102191186
630000000                -0.44541177755163486     -0.802492021237839
660000000                -0.5201816402734452      -0.7545529101067983
690000000                -0.5898471544146332      -0.6997444401022666
720000000                -0.6537844509639408      -0.6386013519638958
750000000                -0.7114249344402362      -0.5717150477577162
780000000                -0.7622605064372442      -0.49972783063998644
810000000                -0.8058481645808512      -0.42332666583844514
840000000                -0.8418139373903974      -0.34323653150354566
870000000                -0.869856122285602       -0.26021343086532245
900000000                -0.8897478009002482      -0.1750371396618371
930000000                -0.9013386134484892      -0.08850376427668569
960000000                -0.9045557814632622      -0.0014181866811094187
990000000                -0.8994043756485717      0.0854135267768486
1020000000               -0.8859668336210739      0.17119167748229558
1050000000               -0.864401739484047       0.2551303726394494
1080000000               -0.8349418846831785      0.33646477721359636
1110000000               -0.797891636565458       0.41445811021134465
1140000000               -0.7536236476431519      0.48840831946747304
1170000000               -0.7025749448248743      0.5576543731810703
1200000000               -0.6452424434021847      0.6215821113746028
1230000000               -0.5821779359154976      0.6796296054144728
1260000000               -0.5139826100762621      0.7312919800039973
1290000000               -0.4413011542234395      0.7761256574114842
1320000000               -0.3648155114751701      0.8137519907298683
1350000000               -0.2852383464445053      0.8438602590766477
1380000000               -0.20330628997795977     0.8662100045737496
1410000000               -0.11977302844725345     0.8806326975774464
1440000000               -0.03540230433219804     0.8870327234516918
1470000000               0.049039105291172724     0.8853876906928758
1500000000               0.13278836709082195      0.8757480668091276
1530000000               0.21509346262986995      0.8582361545075279
1560000000               0.2952198908106592       0.8330444267943613
1590000000               0.3724571426685579       0.8004332452270614
1620000000               0.44612489294209506      0.7607279908347109
1650000000               0.5155788563844331       0.7143156421818602
1680000000               0.580216261067051        0.6616408394647016
1710000000               0.639480895358237        0.6032014775930206
1740000000               0.6928676900750986       0.539543874753622
1770000000               0.7399268025795301       0.4712575660030415
1800000000               0.7802671749740558       0.39896977401080125
1830000000               0.813559544544901        0.3233396109472385
1860000000               0.8395388905627972       0.24505206707673366
1890000000               0.8580063084321434       0.16481184181529157
1920000000               0.8688303089126688       0.08333707311778478
1950000000               0.8719475479951403       0.001353018779662251
1980000000               0.8673630007658482       -0.0804142600147029
2010000000               0.855149600894675        -0.16124416954936427
2040000000               0.8354473746452552       -0.24042777603005705
2070000000               0.8084621027970059       -0.3172739042789907
2100000000               0.7744635409476651       -0.3911151518879995
2130000000               0.7337832102225331       -0.4613138608415917
2.16E9                   0.6868117233429469       -0.527268123612218
2.19E9                   0.6339955189690262       -0.5884179186430045
2.22E9                   0.5758327315442798       -0.6442514275888331
2.25E9                   0.5128677525758342       -0.6943114100755395
2.28E9                   0.44568395900300645      -0.7382011246840525
2.31E9                   0.3748943347396793       -0.7755887149078781
2.34E9                   0.3011305555063622       -0.8062085389686411
2.37E9                   0.22503245787045306      -0.8298582737278027
2.4E9                    0.14724078629803702      -0.8463923015482598
2.43E9                   0.0683953283618564       -0.8557142925824821
2.46E9                   -0.010862298477156074    -0.857773015494098
2.49E9                   -0.08988488302057328     -0.8525636769483923
2.52E9                   -0.1680189645863136      -0.8401336236004447
2.55E9                   -0.2446090220171785      -0.8205889553016317
2.58E9                   -0.31900543899570155     -0.7940989542347687
2.61E9                   -0.39057394008656604     -0.7608971235485952
2.64E9                   -0.45870459168428007     -0.7212792629713725
2.67E9                   -0.5228194599626683      -0.6755996415939697
2.7E9                    -0.5823788015304687      -0.6242662162060226
2.73E9                   -0.6368860231515865      -0.5677354812291425
2.76E9                   -0.685891709565416       -0.5065072208766197
2.79E9                   -0.7289969530785925      -0.44111924619342346
2.82E9                   -0.7658561294348472      -0.3721421166618783
2.85E9                   -0.7961791936808883      -0.300173823509031
2.88E9                   -0.8197335244818824      -0.22583441679297822
2.91E9                   -0.836345320555669       -0.14976057239693166
2.94E9                   -0.8459005420035735      -0.07260010910487101
2.97E9                   -0.8483453862641075      0.004993522001033028
3.0E9                    -0.8436862900778316      0.08236674477055772
3.03E9                   -0.8319894529603916      0.1588713251148144
3.06E9                   -0.8133798828874819      0.23386975728519477
3.09E9                   -0.7880399707795978      0.3067405273685565
3.12E9                   -0.756207606220477       0.3768832120907568
3.15E9                   -0.7181738521735723      0.4437233732169416
3.18E9                   -0.6742802008915384      0.5067172109422282
3.21E9                   -0.6249154359680733      0.5653559442020585
3.24E9                   -0.5705121264028937      0.619169890149294
3.27E9                   -0.5115427774637192      0.6677322187371061
3.3E9                    -0.4485156605406709      0.7106623601044979
3.33E9                   -0.3819703411530306      0.7476290414465605
3.36E9                   -0.3124729222871895      0.7783529259222354
3.39E9                   -0.24061102087757097     0.8026088193257682
3.42E9                   -0.16698850058643924     0.8202274016246861
3.45E9                   -0.09221999470999798     0.8310964324955125
3.48E9                   -0.016925270285371854    0.8351613751040159
3.51E9                   0.05827649344195756      0.8324253844162183
3.54E9                   0.13277241449541374      0.8229486182585483
3.57E9                   0.2059614861694147       0.8068468531671287
3.6E9                    0.27725989149867286      0.7842894215206463
3.63E9                   0.346105923495516        0.7554965268229716
3.66E9                   0.4119643983359355       0.7207360326371669
3.69E9                   0.474330479326785        0.6803198503340138
3.72E9                   0.5327328672362116       0.6346000678624553
3.75E9                   0.5867363511147062       0.5839649677634443
3.78E9                   0.6359437524518402       0.5288350813975657
3.81E9                   0.679997337852883        0.46965941803523087
3.84E9                   0.7185798237430217       0.4069119853902865
3.87E9                   0.7514151448862464       0.3410886708061234
3.9E9                    0.7782691880406166       0.2727044747116422
3.93E9                   0.7989506805078094       0.20229099017344182
3.96E9                   0.8133123571941628       0.13039393252157147
3.99E9                   0.8212524180504275       0.05757047520094127
4.02E9                   0.8227161612341789       -0.015613834384544573
4.05E9                   0.8176975765023201       -0.08858872377449656
4.08E9                   0.8062406391191541       -0.1607834336325008
4.11E9                   0.7884400662723401       -0.23163144897069007
4.14E9                   0.764441371944487        -0.30057553868246684
4.17E9                   0.7344401551454699       -0.3670728810299141
4.2E9                    0.6986806512730767       -0.43060006568230574
4.23E9                   0.6574536449473776       -0.4906578134807238
4.26E9                   0.6110938742144758       -0.5467753227470086
4.29E9                   0.5599770510399366       -0.5985142153044433
4.32E9                   0.5045165918166822       -0.6454721001065247
4.35E9                   0.445160109638046        -0.6872857902050256
4.38E9                   0.38238568307802084      -0.7236342013691308
4.41E9                   0.31669789508544144      -0.7542409372330302
4.44E9                   0.24862363369662896      -0.7788765385328745
4.47E9                   0.17870765997543325      -0.7973603530656395
4.5E9                    0.10750797103794946      -0.8095619738457241
4.53E9                   0.035591009774812936     -0.8154021965879343
4.56E9                   -0.036473207259376215    -0.8148534620152283
4.59E9                   -0.10811596011544947     -0.80793977072548
4.62E9                   -0.1787746082023178      -0.7947360849446627
4.65E9                   -0.2478972099572757      -0.7753672579432883
4.68E9                   -0.3149469263655542      -0.7500065519215071
4.71E9                   -0.37940618627033046     -0.7188738116085847
4.74E9                   -0.44078062215868175     -0.6822333489841143
4.77E9                   -0.4986028039003532      -0.6403915659786542
4.8E9                    -0.5524357950828365      -0.5936943066013877
4.83E9                   -0.6018765310748938      -0.5425239025153265
4.86E9                   -0.6465589781674338      -0.4872958698731291
4.89E9                   -0.6861569948391049      -0.42845523504407157
4.92E9                   -0.7203867938956071      -0.36647250732603104
4.95E9                   -0.7490089065049275      -0.30183936547747964
4.98E9                   -0.7718295761210936      -0.2350641684589662
5.01E9                   -0.7887015565089412      -0.1666674279088079
5.04E9                   -0.7995243442128386      -0.09717738357814114
5.07E9                   -0.8042439306970586      -0.027125799473032536
5.1E9                    -0.8028521994053199      0.04295595103665018
5.13E9                   -0.7953861040558629      0.11254051019943118
5.16E9                   -0.7819267366393357      0.18110793718183038
5.19E9                   -0.7625983291860673      0.24814899436046095
5.22E9                   -0.7375671524349358      0.31316842287356533
5.25E9                   -0.7070402113444352      0.3756882557686305
5.28E9                   -0.6712636244915822      0.4352511307536047
5.31E9                   -0.6305206223625953      0.49142348902305844
5.34E9                   -0.5851291866945051      0.5437985210441045
5.37E9                   -0.5354394359308695      0.5919987580881915
5.4E9                    -0.4818309002835955      0.6356782899228205
5.43E9                   -0.4247098085327403      0.6745246746010592
5.46E9                   -0.36450644196488347     0.7082606586673782
5.49E9                   -0.30167252986558135     0.736645828830646
5.52E9                   -0.23667859589466922     0.7594782749437186
5.55E9                   -0.17001113322983327     0.7765962778032677
5.58E9                   -0.10216949189879188     0.7878799649194157
5.61E9                   -0.033662399087881316    0.7932528187257961
5.64E9                   0.03499590621842313      0.7926828854764578
5.67E9                   0.10328986890989551      0.786183527330135
5.7E9                    0.17070701465287233      0.7738135916405767
5.73E9                   0.23674236596247802      0.7556769411411802
5.76E9                   0.300902686865728        0.731921383055316
5.79E9                   0.3627104146242987       0.7027371225292027
5.82E9                   0.4217072306081853       0.6683549075731015
5.85E9                   0.47745732060637425      0.6290440075413685
5.88E9                   0.5295504315312896       0.5851100888811712
5.91E9                   0.5776048245970372       0.5368929624190728
5.94E9                   0.6212701678241139       0.4847641183756253
5.97E9                   0.6602303382594027       0.4291239569816816
6.0E9                    0.6942060483653052       0.3703986547812146
