% Model:              three_layers reality at 0.1mm.mph
% Version:            COMSOL 5.6.0.280
% Date:               Mar 7 2022, 17:27
% Table:              表格 1 - 全局计算 1
% freq (Hz)              real(emw.S11) (1)        imag(emw.S11) (1)
300000000                0.4522400360024234       -0.7313093139405121
330000000                0.3782137662309566       -0.7690116311628556
360000000                0.3012713077854633       -0.7994580394485937
390000000                0.22208823174075507      -0.8224161609499743
420000000                0.14136548103289517      -0.8377194354016079
450000000                0.05982089678295264      -0.8452691876471449
480000000                -0.021818769564403342    -0.845035863200137
510000000                -0.10282550952826171     -0.8370594783239036
540000000                -0.18247743922495854     -0.8214493201887042
570000000                -0.2600659230653232      -0.7983829281066166
600000000                -0.3349024253026106      -0.7681043862554143
630000000                -0.40632506110518984     -0.7309219593868993
660000000                -0.47370480798951936     -0.6872051063271307
690000000                -0.5364513365928971      -0.6373809092450291
720000000                -0.5940184178114829      -0.5819299607497895
750000000                -0.6459088648551922      -0.5213817546267308
780000000                -0.6916789708359992      -0.4563096302115639
810000000                -0.7309424069352564      -0.3873253232607232
840000000                -0.7633735498440684      -0.31507317997131845
870000000                -0.7887102128360516      -0.24022409288034124
900000000                -0.8067557600242434      -0.16346921972475414
930000000                -0.8173805893675159      -0.08551354767173236
960000000                -0.8205229759135539      -0.007069366303361153
990000000                -0.8161892730386717      0.07115028694535604
1020000000               -0.8044534756338652      0.14843814607466424
1050000000               -0.7854561552155396      0.22409913800967862
1080000000               -0.7594027830278183      0.29745664615325634
1110000000               -0.7265614628904299      0.3678585576713973
1140000000               -0.6872601010483899      0.4346830391476781
1170000000               -0.6418830453951541      0.4973439886518507
1200000000               -0.5908672312076549      0.5552961159
1230000000               -0.5346978746892775      0.6080396067614764
1260000000               -0.4739037595839216      0.6551243325938025
1290000000               -0.40905216526114174     0.696153570121544
1320000000               -0.3407434873819039      0.7307872027154486
1350000000               -0.26960560457433        0.7587443791535086
1380000000               -0.19628804596779387     0.7798056116626106
1410000000               -0.12145601554488082     0.7938143004991564
1440000000               -0.045784329754414446    0.8006776779334784
1470000000               0.0300486753764293       0.8003671700803046
1500000000               0.10536721189888852      0.792918180414259
1530000000               0.17950402788370248      0.7784293041178268
1560000000               0.25180626279052165      0.757060987497534
1590000000               0.32164111946608237      0.7290336515448462
1620000000               0.38840130458381616      0.6946253032999873
1650000000               0.4515101922162325       0.6541686629526067
1680000000               0.5104266685908018       0.6080478385377225
1710000000               0.5646496197054125       0.5566945836747159
1740000000               0.6137220274342141       0.5005841770217788
1770000000               0.6572346441437138       0.44023096487607005
1800000000               0.6948292202532702       0.37618361082390805
1830000000               0.726201264291428        0.30902009812910297
1860000000               0.7511023200340287       0.23934253213684561
1890000000               0.7693417511596341       0.167771790466779
1920000000               0.7807880297671936       0.09494206894176177
1950000000               0.785369531813333        0.02149536975472315
1980000000               0.7830748494930142       -0.05192402447314634
2010000000               0.7739526378480108       -0.12467505262044079
2040000000               0.7581110195644926       -0.19612532408096048
2070000000               0.7357165761951532       -0.26565650069654984
2100000000               0.7069929521246974       -0.3326696189943967
2130000000               0.6722190824307174       -0.3965903887766305
2.16E9                   0.6317270160285336       -0.45687453539394973
2.19E9                   0.5858992270421599       -0.5130132704113805
2.22E9                   0.5351651818462916       -0.5645389428116071
2.25E9                   0.4799967794557327       -0.6110307769922314
2.28E9                   0.4209022043195578       -0.65212027957708
2.31E9                   0.3584179233376881       -0.687495410904254
2.34E9                   0.29309924792613273      -0.7169022207900828
2.37E9                   0.22551101658532088      -0.7401428861813535
2.4E9                    0.1562208338122556       -0.7570704299094924
2.43E9                   0.08579678245312367      -0.7675824184605491
2.46E9                   0.014809258021942995     -0.7716170267768769
2.49E9                   -0.05616595252616374     -0.769153636918849
2.52E9                   -0.12654682400690992     -0.7602173250107498
2.55E9                   -0.1957482144375584      -0.7448845170554513
2.58E9                   -0.2631883444426353      -0.723287134251351
2.61E9                   -0.3282968156027295      -0.6956139949470628
2.64E9                   -0.39052251513469866     -0.662109644339984
2.67E9                   -0.44934052492027415     -0.6230714210020509
2.7E9                    -0.5042578280557142      -0.578845561139239
2.73E9                   -0.5548179542839832      -0.5298228734434107
2.76E9                   -0.6006047956324636      -0.4764342539600872
2.79E9                   -0.6412457887925211      -0.41914614066451517
2.82E9                   -0.6764145932092552      -0.35845592496251905
2.85E9                   -0.7058333348154656      -0.2948873092993382
2.88E9                   -0.7292744450646294      -0.2289855992391642
2.91E9                   -0.7465621018315658      -0.16131292739108152
2.94E9                   -0.7575732673450833      -0.09244341785348181
2.97E9                   -0.7622383144597134      -0.02295830979157166
3.0E9                    -0.760541233062517       0.04655893354633957
3.03E9                   -0.7525194112990251      0.11552749846594246
3.06E9                   -0.7382629906092488      0.18337404171315336
3.09E9                   -0.7179137984824524      0.24953742137680465
3.12E9                   -0.6916638679889797      0.31347330047463867
3.15E9                   -0.6597535579891097      0.37465858719571626
3.18E9                   -0.6224692919857531      0.43259567856488784
3.21E9                   -0.5801409363597793      0.4868164778164188
3.24E9                   -0.5331388397835519      0.5368861598078766
3.27E9                   -0.48187055489342656     0.5824066620680638
3.3E9                    -0.42677726112270015     0.6230198808592754
3.33E9                   -0.36832990485485734     0.6584105509993448
3.36E9                   -0.30702507104023957     0.6883087847532852
3.39E9                   -0.24338060065934972     0.7124922391073512
3.42E9                   -0.1779309724581175      0.7307878730799483
3.45E9                   -0.11122247641760108     0.7430732491952416
3.48E9                   -0.04380822097723698     0.7492773283167931
3.51E9                   0.02375696478108509      0.7493807077455068
3.54E9                   0.09092165104948276      0.7434152616764428
3.57E9                   0.15714284683773805      0.731463162587098
3.6E9                    0.22189084419590233      0.7136552909854736
3.63E9                   0.28465375172767865      0.6901690752912774
3.66E9                   0.3449416152403192       0.6612258369705248
3.69E9                   0.4022900478141498       0.6270877421151337
3.72E9                   0.45626332172740797      0.5880544763080128
3.75E9                   0.5064569053702288       0.5444597664461401
3.78E9                   0.5524994587441977       0.4966678750003068
3.81E9                   0.5940543351201484       0.44507019003014636
3.84E9                   0.630820677712369        0.3900820225177981
3.87E9                   0.6625342452320254       0.33213969072096505
3.9E9                    0.6889681348807714       0.27169791164588925
3.93E9                   0.7099335748857275       0.20922743786141443
3.96E9                   0.7252809163752176       0.1452127944856048
3.99E9                   0.7349008681602577       0.08014991623546353
4.02E9                   0.738725910221747        0.014543481503286987
4.05E9                   0.7367317259587154       -0.05109620535854107
4.08E9                   0.7289384393339475       -0.11625683764422257
4.11E9                   0.7154114444402873       -0.1804281846557726
4.14E9                   0.6962616655326226       -0.24310648825754502
4.17E9                   0.6716451650219917       -0.3037989949594969
4.2E9                    0.6417621003513823       -0.3620284391513017
4.23E9                   0.6068550969767028       -0.4173373274116081
4.26E9                   0.5672071411784135       -0.4692919286349293
4.29E9                   0.5231391005837015       -0.5174859315293402
4.32E9                   0.475006958757162        -0.5615437743663766
4.35E9                   0.4231988156293879       -0.60112367291567
4.38E9                   0.3681316721485187       -0.6359203706188247
4.41E9                   0.3102479961705051       -0.6656676171307523
4.44E9                   0.2500120617016611       -0.6901403577129843
4.47E9                   0.18790606341436789      -0.7091565960705957
4.5E9                    0.12442602711871072      -0.7225788829568526
4.53E9                   0.06007755829891118      -0.7303153837744212
4.56E9                   -0.004628510300235611    -0.7323204894010069
4.59E9                   -0.06918049811283922     -0.7285949531561342
4.62E9                   -0.13307020521013194     -0.7191855603917188
4.65E9                   -0.19579711841593125     -0.7041843616933082
4.68E9                   -0.25687244191823305     -0.6837275205876083
4.71E9                   -0.315822926157745       -0.6579938353807612
4.74E9                   -0.3721944972131473      -0.6272029873800735
4.77E9                   -0.42555570844833784     -0.5916135446048492
4.8E9                    -0.47550103759382295     -0.5515207188639865
4.83E9                   -0.5216540331355837      -0.5072538476567953
4.86E9                   -0.5636702805470939      -0.459173562847184
4.89E9                   -0.6012401239817091      -0.4076686213553363
4.92E9                   -0.6340910564082192      -0.35315240545936377
4.95E9                   -0.661989688623427       -0.29605914205626466
4.98E9                   -0.6847432267365052      -0.2368399295696067
5.01E9                   -0.7022004244671138      -0.17595868817929358
5.04E9                   -0.7142520236671255      -0.11388815709515827
5.07E9                   -0.7208307447025915      -0.05110604784108319
5.1E9                    -0.7219109265406136      0.011908575236745298
5.13E9                   -0.7175079321907131      0.07467867112487148
5.16E9                   -0.7076774187649493      0.13673239779953858
5.19E9                   -0.692514522190688       0.19760617219911503
5.22E9                   -0.6721529387424277      0.2568477044410919
5.25E9                   -0.6467638268237158      0.3140190563435974
5.28E9                   -0.6165544321358486      0.368699703773207
5.31E9                   -0.5817663710078546      0.4204895137276591
5.34E9                   -0.5426735767578608      0.4690115155320578
5.37E9                   -0.49957998805714726     0.5139143674778623
5.4E9                    -0.45281710066530717     0.5548744839326306
5.43E9                   -0.40274149702996187     0.5915978623170559
5.46E9                   -0.3497324195544244      0.6238217019740615
5.49E9                   -0.29418938644067083     0.6513159203302066
5.52E9                   -0.23652978945739359     0.6738846467431918
5.55E9                   -0.17718637765069867     0.6913677243032197
5.58E9                   -0.11660452561650346     0.703642191166121
5.61E9                   -0.05523920725105427     0.7106236594921649
5.64E9                   0.006448359285458416     0.7122674716208646
5.67E9                   0.0679943693532719       0.7085694980232471
5.7E9                    0.1289363008590982       0.6995664574875725
5.73E9                   0.18881684941310725      0.6853356906487851
5.76E9                   0.24718776454905422      0.6659943954160618
5.79E9                   0.30361345093583625      0.6416984124276462
5.82E9                   0.35767427089234993      0.6126406964637687
5.85E9                   0.4089695699938958       0.5790496023180077
5.88E9                   0.45712050561852247      0.5411870563487813
5.91E9                   0.5017727650482103       0.4993466096401711
5.94E9                   0.5425992203436261       0.45385131276686796
5.97E9                   0.5793025084683286       0.40505133557902834
6.0E9                    0.6116174748778939       0.35332127475467184
