% Model:              three_layers reality at 0.1mm.mph
% Version:            COMSOL 5.6.0.280
% Date:               Mar 7 2022, 17:37
% Table:              表格 1 - 全局计算 1
% freq (Hz)              real(emw.S11) (1)        imag(emw.S11) (1)
300000000                0.4969592686044626       -0.7902648451144327
330000000                0.41658560548241436      -0.8327211444045096
360000000                0.3328239595633967       -0.8671944532651863
390000000                0.24642794262636158      -0.8934181151356244
420000000                0.1581793364327213       -0.9111957333949872
450000000                0.06887952794118864      -0.9204048554387003
480000000                -0.02065896427700853     -0.9209993382518576
510000000                -0.10962086014291472     -0.9130105750375496
540000000                -0.19719635176470673     -0.8965476993588603
570000000                -0.2825891550017774      -0.8717968494787247
600000000                -0.3650243247207299      -0.8390195573724901
630000000                -0.4437557754342602      -0.7985503183413826
660000000                -0.5180734472750752      -0.7507933941019981
690000000                -0.5873100577853199      -0.6962189023714639
720000000                -0.6508473818627223      -0.6353582480299101
750000000                -0.7081220058702735      -0.5687989538682394
780000000                -0.758630505904262       -0.4971789525175182
810000000                -0.8019340060054465      -0.4211804041977102
840000000                -0.8376620773444371      -0.3415231087098782
870000000                -0.8655159466137374      -0.2589575822875706
900000000                -0.885270988333859       -0.17425787240259838
930000000                -0.8967784831889811      -0.08821418527319956
960000000                -0.8999666319003112      -0.001625401456398476
990000000                -0.8948408217047263      0.0847084446483391
1020000000               -0.8814831500233844      0.16999364660613614
1050000000               -0.8600512172829989      0.2534501952213579
1080000000               -0.8307762080810197      0.33431896382608617
1110000000               -0.7939602867705798      0.4118686409909489
1140000000               -0.7499733401316302      0.485402345287835
1170000000               -0.699249105857306       0.5542638612250682
1200000000               -0.6422807311261037      0.617843439994236
1230000000               -0.5796158107262314      0.6755831137365883
1260000000               -0.5118509583466507      0.7269814780503484
1290000000               -0.43962596874083837     0.7715979029924349
1320000000               -0.36361763118798796     0.8090561395725113
1350000000               -0.28453325756552605     0.8390472947236152
1380000000               -0.2031039895152257      0.8613321548612902
1410000000               -0.1200779506934163      0.8757428443744284
1440000000               -0.03621331001148427     0.8821838123356964
1470000000               0.04772867810901023      0.8806321470517725
1500000000               0.13099059192146909      0.8711372246809614
1530000000               0.2128256555636746       0.8538197041658183
1560000000               0.2925043863903241       0.8288698867667273
1590000000               0.36932101787855026      0.7965454640315565
1620000000               0.44259964321771045      0.7571686832844985
1650000000               0.5117000277269721       0.711122964652581
1680000000               0.5760230428789136       0.6588490080207112
1710000000               0.6350156788525134       0.6008404323151432
1740000000               0.6881755972946373       0.5376389931409072
1770000000               0.735055191299821        0.46982942773246705
1800000000               0.7752651248621171       0.3980339788136475
1830000000               0.808477329911294        0.32290665094394994
1860000000               0.8344274452128808       0.24512725421446732
1890000000               0.852916687862399        0.1653952909388392
1920000000               0.863813155241521        0.08442374040289513
1950000000               0.8670525627144934       0.0029327953298890256
1980000000               0.862638430450901        -0.07835640014473966
2010000000               0.8506417408635951       -0.1587279675086992
2040000000               0.8312000956573741       -0.23747743335313062
2070000000               0.8045164061274541       -0.31391777540398424
2100000000               0.7708571478702027       -0.3873853841692336
2130000000               0.730550193469113        -0.4572459813986305
2.16E9                   0.6839821910592367       -0.522900572037741
2.19E9                   0.6315953671507373       -0.5837915251491381
2.22E9                   0.5738834895703153       -0.6394088406931759
2.25E9                   0.5113865572954897       -0.6892964910445651
2.28E9                   0.4446836987569114       -0.7330583547511952
2.31E9                   0.3743839872702722       -0.7703627074601571
2.34E9                   0.30111567703011527      -0.8009437921411431
2.37E9                   0.22551565925877048      -0.8245992830174308
2.4E9                    0.14822192230649664      -0.8411840135325864
2.43E9                   0.06987116143587926      -0.8506026455143945
2.46E9                   -0.008898947743672636    -0.8528051560631322
2.49E9                   -0.0874461691765502      -0.847787550543814
2.52E9                   -0.16512278554776288     -0.835596962481278
2.55E9                   -0.2412792419634723      -0.8163379731182987
2.58E9                   -0.31527156877070284     -0.7901771057826794
2.61E9                   -0.38647046365246696     -0.7573441490132305
2.64E9                   -0.4542701537976436      -0.7181305626456301
2.67E9                   -0.5180960632760672      -0.6728859210769579
2.7E9                    -0.5774110803930051      -0.6220133128298774
2.73E9                   -0.6317206061303873      -0.5659642967683636
2.76E9                   -0.6805766566920499      -0.5052337122467606
2.79E9                   -0.7235812471970942      -0.4403544490358017
2.82E9                   -0.760389203779408       -0.37189219177792043
2.85E9                   -0.7907104832846512      -0.30044012442658197
2.88E9                   -0.8143120343237019      -0.2266135803588692
2.91E9                   -0.8310192075300942      -0.15104463518188174
2.94E9                   -0.8407167105703949      -0.07437665212303954
2.97E9                   -0.8433490993879794      0.002741198662186353
3.0E9                    -0.8389207980372346      0.07965941697527829
3.03E9                   -0.8274956429527758      0.15573360968802538
3.06E9                   -0.8091959524299862      0.23032984831452172
3.09E9                   -0.7842011277108014      0.30282990562312084
3.12E9                   -0.7527457978442214      0.3726363298446753
3.15E9                   -0.7151175257854088      0.43917731703195834
3.18E9                   -0.6716540976828292      0.5019113451590601
3.21E9                   -0.6227404201358948      0.5603315379764067
3.24E9                   -0.568805051178032       0.6139697310599678
3.27E9                   -0.5103163897729613      0.6624002161634405
3.3E9                    -0.4477785459317752      0.7052431419818944
3.33E9                   -0.38172691056389313     0.7421675484351327
3.36E9                   -0.3127234419189642      0.7728940077224609
3.39E9                   -0.24135168606846485     0.7971968385207538
3.42E9                   -0.16821155370897467     0.8149058512720437
3.45E9                   -0.09391388610624336     0.8259075743523072
3.48E9                   -0.019074859734907437    0.8301459059479648
3.51E9                   0.05568969922154814      0.827622138156317
3.54E9                   0.12976999508344653      0.8183943111689893
3.57E9                   0.20256782083254576      0.8025758784031185
3.6E9                    0.2735018646139693       0.7803336968627614
3.63E9                   0.3420126360340133       0.7518853961791993
3.66E9                   0.407566900338342        0.7174962173706976
3.69E9                   0.4696615379343456       0.677475441167519
3.72E9                   0.5278267823169319       0.6321725424637269
3.75E9                   0.581628825676866        0.5819732137910955
3.78E9                   0.6306718175242096       0.5272954007784523
3.81E9                   0.6745993213971219       0.4685854870761739
3.84E9                   0.7130953416153109       0.4063147486487176
3.87E9                   0.745885081072315        0.34097615599090325
3.9E9                    0.7727356250953769       0.27308153088252135
3.93E9                   0.793456742528889        0.20315896990580648
3.96E9                   0.8079019386166508       0.13175035546239985
3.99E9                   0.8159697902264149       0.059408720533713225
4.02E9                   0.8176054705530782       -0.013304759519604137
4.05E9                   0.8128022664424326       -0.08582430370024623
4.08E9                   0.801602839245783        -0.15758363317366247
4.11E9                   0.7840999917943606       -0.22802057332307812
4.14E9                   0.7604367695061129       -0.296581981141783
4.17E9                   0.7308058177679109       -0.36272878468838393
4.2E9                    0.6954480119720241       -0.42594092696639047
4.23E9                   0.6546504479218417       -0.48572205154075354
4.26E9                   0.6087439162741245       -0.5416038318856278
4.29E9                   0.5580999841895727       -0.5931499105314931
4.32E9                   0.5031277793914383       -0.6399594605703535
4.35E9                   0.4442705313525386       -0.68167040249589
4.38E9                   0.38200188719970696      -0.7179623043265662
4.41E9                   0.316821997600921        -0.7485589710778688
4.44E9                   0.2492533645177371       -0.7732307027706932
4.47E9                   0.17983645520632213      -0.7917961788189395
4.5E9                    0.10912510867850199      -0.8041239166337057
4.53E9                   0.037681784541345215     -0.8101332549832053
4.56E9                   -0.033927275622137466    -0.8097948262734974
4.59E9                   -0.10513689131198678     -0.8031305036709656
4.62E9                   -0.1753877047548814      -0.7902128354072732
4.65E9                   -0.24413078454212914     -0.7711640052901942
4.68E9                   -0.3108320163823072      -0.746154379098461
4.71E9                   -0.37497625666897705     -0.7154007040731627
4.74E9                   -0.4360712555271583      -0.6791640181790338
4.77E9                   -0.493651375782064       -0.6377472983992145
4.8E9                    -0.5472811330761614      -0.5914928423951838
4.83E9                   -0.5965585586096686      -0.5407793499002027
4.86E9                   -0.6411183475198163      -0.486018662534394
4.89E9                   -0.6806347179890427      -0.42765213845951505
4.92E9                   -0.7148238831447915      -0.3661466766856921
4.95E9                   -0.7434460383856237      -0.30199045305533345
4.98E9                   -0.7663067914903943      -0.23568847273758453
5.01E9                   -0.7832580064514878      -0.16775807168301007
5.04E9                   -0.7941980858533534      -0.09872450473937888
5.07E9                   -0.7990717699252115      -0.029116737485879902
5.1E9                    -0.7978695704696027      0.04053648712597406
5.13E9                   -0.7906269709615268      0.10971030004609289
5.16E9                   -0.7774235002835552      0.17788713329765013
5.19E9                   -0.7583817279341528      0.24456002424103673
5.22E9                   -0.7336661511796474      0.30923589743682567
5.25E9                   -0.7034818818150119      0.3714388741700232
5.28E9                   -0.6680730239250268      0.4307135777556783
5.31E9                   -0.6277206763321695      0.4866283283575504
5.34E9                   -0.5827405756350093      0.5387780922126943
5.37E9                   -0.5334804771246247      0.5867870823022039
5.4E9                    -0.4803174121129734      0.630310983663604
5.43E9                   -0.42365494459276687     0.6690388596868457
5.46E9                   -0.36392048944986355     0.7026948498048156
5.49E9                   -0.3015626773088821      0.7310397766343533
5.52E9                   -0.23704868651847866     0.7538727454660163
5.55E9                   -0.1708614285315786      0.771032758057911
5.58E9                   -0.10349647367204558     0.7824002954173721
5.61E9                   -0.03545863591145881     0.7878987661469781
5.64E9                   0.03274180943440239      0.7874956785859286
5.67E9                   0.10059323113704899      0.7812033848842419
5.7E9                    0.1675869544761108       0.7690792706247329
5.73E9                   0.23322160980213358      0.7512253268397652
5.76E9                   0.29700733258070094      0.7277871307641429
5.79E9                   0.3584696718254554       0.6989523479865953
5.82E9                   0.4171531506807087       0.6649489141994563
5.85E9                   0.47262451802767896      0.6260430367134924
5.88E9                   0.5244757888149831       0.5825370847692074
5.91E9                   0.5723271695763715       0.5347673522037616
5.94E9                   0.6158299147730439       0.483101617551743
5.97E9                   0.6546690913548535       0.42793641474821753
6.0E9                    0.6885661743821907       0.3696939551069966
