% Model:              three_layers reality at 0.1mm.mph
% Version:            COMSOL 5.6.0.280
% Date:               Feb 22 2022, 20:19
% Table:              表格 1 - 全局计算 1
% freq (Hz)              real(emw.S11) (1)        imag(emw.S11) (1)
300000000                0.4045312517805201       -0.7701197679708028
330000000                0.32119930223757953      -0.8056878333533533
360000000                0.2349612380962821       -0.8324687062972473
390000000                0.14671193397552518      -0.8502213523573858
420000000                0.057371668407106925     -0.8587988716005178
450000000                -0.03212554259611977     -0.8581504329911935
480000000                -0.12084317518606565     -0.8483220343328339
510000000                -0.20785308109138115     -0.8294561149010653
540000000                -0.29224603009463584     -0.8017900495033706
570000000                -0.37314187275034877     -0.7656535583348005
600000000                -0.4496992599793628      -0.7214650742420885
630000000                -0.5211248436346995      -0.6697271176246408
660000000                -0.5866818774003808      -0.6110207382439776
690000000                -0.6456981373885754      -0.5459990921951603
720000000                -0.6975730847552869      -0.475380231441217
750000000                -0.7417841989949816      -0.3999391911978686
780000000                -0.7778924178366705      -0.32049946819454045
810000000                -0.8055466289559491      -0.2379239893275863
840000000                -0.8244871690113135      -0.15310567544075054
870000000                -0.8345482964511721      -0.06695770942876485
900000000                -0.8356596164008269      0.019596379592733457
930000000                -0.827846447866889       0.10563270251159203
960000000                -0.8112291358371124      0.19023695356422254
990000000                -0.7860213229643821      0.2725141985668416
1020000000               -0.7525272075576421      0.3515983986086251
1050000000               -0.7111378261131678      0.4266615639717138
1080000000               -0.6623264096058735      0.4969224382264903
1110000000               -0.6066428730292505      0.5616546189436337
1140000000               -0.5447075070037305      0.6201940291857455
1170000000               -0.4772039487315846      0.6719456622987586
1200000000               -0.4048715167892845      0.7163895320116888
1230000000               -0.3284970005624195      0.753085769661469
1260000000               -0.24890599982713885     0.7816788210816096
1290000000               -0.1669539140442561      0.8019007062908203
1320000000               -0.08351668292473668     0.8135733164555868
1350000000               5.186184744907507E-4     0.8166097334475663
1380000000               0.08426322731863145      0.8110145685540161
1410000000               0.16683608129347097      0.7968833275669673
1440000000               0.2473730481829744       0.7744008199923
1470000000               0.32503590049828796      0.743838640120758
1500000000               0.39902094340702593      0.705551757133096
1530000000               0.46856720919090283      0.659974260262371
1560000000               0.5329641376828645       0.6076143131006569
1590000000               0.5915586686204656       0.5490483785440381
1620000000               0.6437616793036807       0.4849147823470449
1650000000               0.6890537086176978       0.4159066890231296
1680000000               0.7269899168366223       0.34276456860750626
1710000000               0.7572042391362477       0.26626823678376627
1740000000               0.7794126996392852       0.18722855390055013
1770000000               0.7934158618789304       0.10647887058176733
1800000000               0.7991004008281266       0.02486630874161251
1830000000               0.7964397909078085       -0.0567570328982957
1860000000               0.7854941138248723       -0.1375428605637766
1890000000               0.7664089993983982       -0.2166553682415273
1920000000               0.7394137217629396       -0.29327973877746066
1950000000               0.7048184822574527       -0.366630385238241
1980000000               0.6630109184609335       -0.43595886182461846
2010000000               0.6144518856482724       -0.5005613827900915
2040000000               0.5596705609072051       -0.559785900485504
2070000000               0.49925891899769276      -0.6130387091326768
2100000000               0.4338656188746779       -0.6597905585657138
2130000000               0.364189315164594        -0.69958227779443
2.16E9                   0.29097136382833483      -0.7320299116848982
2.19E9                   0.21498782432266791      -0.7568293447494501
2.22E9                   0.13704058737215324      -0.7737602911177178
2.25E9                   0.057947431383999874     -0.7826893350276467
2.28E9                   -0.021469056451904223    -0.7835714175581088
2.31E9                   -0.10039332455641255     -0.7764489134105781
2.34E9                   -0.17802833891956418     -0.7614475497275801
2.37E9                   -0.25360485034408714     -0.7387692719268873
2.4E9                    -0.3263867136314364      -0.7086837052328269
2.43E9                   -0.3956721075651446      -0.6715210975669281
2.46E9                   -0.460792874614941       -0.6276691302926565
2.49E9                   -0.5211154065844726      -0.5775735721572517
2.52E9                   -0.5760453062859047      -0.5217402615853161
2.55E9                   -0.6250355121983071      -0.46073535085218204
2.58E9                   -0.6675958121795355      -0.39518216139564455
2.61E9                   -0.7033016070447573      -0.32575481664545625
2.64E9                   -0.7318007427136527      -0.2531697932300413
2.67E9                   -0.7528181969849035      -0.17817656578180563
2.7E9                    -0.7661589211771848      -0.10154811825236545
2.73E9                   -0.7717092489238253      -0.02407168653207265
2.76E9                   -0.7694372025357592      0.0534601558366689
2.79E9                   -0.7593919057346272      0.1302580656894604
2.82E9                   -0.7417022163337366      0.20554417232936137
2.85E9                   -0.7165746357468752      0.27856000137573167
2.88E9                   -0.6842905256779805      0.3485740666118095
2.91E9                   -0.6452026544802248      0.4148890974648759
2.94E9                   -0.5997310978793287      0.47684885694614787
2.97E9                   -0.5483585254796695      0.5338444980784044
3.0E9                    -0.49162491290688415     0.585320404575011
3.03E9                   -0.4301217279632229      0.6307794628679168
3.06E9                   -0.3644856470417116      0.6697877165461765
3.09E9                   -0.2953918647406118      0.7019783602580312
3.12E9                   -0.22354706496062768     0.7270550375186298
3.15E9                   -0.14968212523814461     0.7447944153042223
3.18E9                   -0.0745446276372899      0.755048017052409
3.21E9                   0.0011087508788994783    0.7577433040405226
3.24E9                   0.07651989790488455      0.7528840022938851
3.27E9                   0.15093690718180924      0.7405496774191537
3.3E9                    0.22362163778890842      0.7208945628121943
3.33E9                   0.2938571280050319       0.6941456476775285
3.36E9                   0.3609548000215064       0.6606000312016328
3.39E9                   0.42426138758043486      0.6206215494241318
3.42E9                   0.48316551099583127      0.5746366839256645
3.45E9                   0.5371038140097326       0.5231297683955074
3.48E9                   0.5855665663907939       0.4666375224491409
3.51E9                   0.6281026284285229       0.4057429626908716
3.54E9                   0.664323672508446        0.3410687683495738
3.57E9                   0.693907566715366        0.27327020996399387
3.6E9                    0.7166008483969126       0.2030277789181072
3.63E9                   0.7322202505451089       0.13103967679877018
3.66E9                   0.7406532860433668       0.05801433095239227
3.69E9                   0.7418579369651934       -0.015336905181308409
3.72E9                   0.7358615320119721       -0.0883067283267741
3.75E9                   0.7227589229203293       -0.1601984265958649
3.78E9                   0.7027100923984151       -0.23033190498768988
3.81E9                   0.675937344032803        -0.29804915174706237
3.84E9                   0.6427222349701225       -0.36271915090249185
3.87E9                   0.6034024038181951       -0.42374230748896874
3.9E9                    0.5583684058800351       -0.4805545152228432
3.93E9                   0.5080605915276779       -0.5326310396015511
3.96E9                   0.45296596445600823      -0.579490388836223
3.99E9                   0.39361486467024         -0.620698288630983
4.02E9                   0.33057726931762127      -0.6558717754943522
4.05E9                   0.26445851375928003      -0.6846833068182391
4.08E9                   0.19589430346102238      -0.7068646912511779
4.11E9                   0.12554499137510772      -0.722210597221292
4.14E9                   0.05408920328950391      -0.7305814090120288
4.17E9                   -0.017783023892366856    -0.7319052580581531
4.2E9                    -0.08937738497449939     -0.726179139808067
4.23E9                   -0.16000252693167172     -0.7134691090352856
4.26E9                   -0.2289771796906319      -0.6939096090043937
4.29E9                   -0.29563708219545        -0.6677020217804289
4.32E9                   -0.35934163937189284     -0.6351125280599556
4.35E9                   -0.41948027997803755     -0.5964693440653519
4.38E9                   -0.4754784972450887      -0.5521593743166701
4.41E9                   -0.5268035462675822      -0.5026242958380437
4.44E9                   -0.5729697527315497      -0.4483560801666487
4.47E9                   -0.6135433671360878      -0.3898919661153401
4.5E9                    -0.6481468852164838      -0.3278089149469494
4.53E9                   -0.6764627527722358      -0.26271760452011483
4.56E9                   -0.6982363822836132      -0.19525604414550124
4.59E9                   -0.7132784282142843      -0.12608291258738344
4.62E9                   -0.7214662953039024      -0.055870733845514865
4.65E9                   -0.7227448855369674      0.014700994223555173
4.68E9                   -0.7171266188793606      0.08495261692123997
4.71E9                   -0.7046907824662547      0.15421100978722552
4.74E9                   -0.6855822657940961      0.2218160917473834
4.77E9                   -0.6600097237387215      0.28712714648171694
4.8E9                    -0.6282431810178452      0.34952894343442026
4.83E9                   -0.5906110641474699      0.40843763684124945
4.86E9                   -0.5474966342752259      0.4633063902832058
4.89E9                   -0.4993338050008885      0.5136306380762191
4.92E9                   -0.44660236235136347     0.5589528682604255
4.95E9                   -0.38982265027573737     0.5988668058147723
4.98E9                   -0.329549831682975       0.6330208927332207
5.01E9                   -0.2663678705383921      0.661121000788199
5.04E9                   -0.20088339599225416     0.6829323661184032
5.07E9                   -0.13371959949851622     0.6982807920533403
5.1E9                    -0.0655102791338539      0.7070532151117948
5.13E9                   0.0031059129163718783    0.709197754619772
5.16E9                   0.07149102908842729      0.7047233570161376
5.19E9                   0.13901325070152062      0.6936990996003747
5.22E9                   0.20505224877802863      0.67625314933288
5.25E9                   0.26900451597203007      0.6525713098114321
5.28E9                   0.3302886327811287       0.6228950659237065
5.31E9                   0.38835035952684066      0.5875190669728481
5.34E9                   0.4426674115100987       0.5467880624447398
5.37E9                   0.49275379713691836      0.5010933839003779
5.4E9                    0.5381636664838706       0.4508691130025355
5.43E9                   0.5784946975681445       0.39658806993380424
5.46E9                   0.6133911046685626       0.3387577055117573
5.49E9                   0.6425463679192099       0.2779159094775931
5.52E9                   0.6657057565048373       0.21462668467520132
5.55E9                   0.6826686636867582       0.14947560082303002
5.58E9                   0.6932907089199034       0.08306493894021401
5.61E9                   0.6974855062580958       0.01600846575645062
5.64E9                   0.6952259606851012       -0.051074169863975595
5.67E9                   0.6865449441641943       -0.11756335831603366
5.7E9                    0.6715352286139666       -0.18284563765694684
5.73E9                   0.6503486154506075       -0.24631980488189079
5.76E9                   0.6231942890466989       -0.30740283244602595
5.79E9                   0.5903365056287221       -0.36553543232728375
5.82E9                   0.5520917738319551       -0.42018719274296185
5.85E9                   0.5088256673224374       -0.4708613025122098
5.88E9                   0.4609493444601254       -0.5170989327535704
5.91E9                   0.4089157722992493       -0.5584833434948777
5.94E9                   0.35321560138551383      -0.5946437345518999
5.97E9                   0.2943726315232757       -0.6252587971184035
6.0E9                    0.23293883952245287      -0.6500598740590607
