% Model:              three_layers reality at 0.1mm.mph
% Version:            COMSOL 5.6.0.280
% Date:               Feb 23 2022, 17:47
% Table:              表格 1 - 全局计算 1
% freq (Hz)              real(emw.S11) (1)        imag(emw.S11) (1)
300000000                0.597708736031639        -0.7284634997791363
330000000                0.5320417429974083       -0.7769205591743998
360000000                0.4625616819642687       -0.8195408208394653
390000000                0.38977356010886716      -0.8560210239655822
420000000                0.31420905945022287      -0.8861022262049668
450000000                0.23642196861612935      -0.9095720040915023
480000000                0.15698364886211494      -0.9262662443810821
510000000                0.07647849232351281      -0.9360705317012976
540000000                -0.004500639213985025    -0.9389211339645792
570000000                -0.08535698857401304     -0.9348055855413231
600000000                -0.1654944746959977      -0.9237628685943386
630000000                -0.24432223829953587     -0.9058831939190756
660000000                -0.32125913514322235     -0.8813073845544985
690000000                -0.39573814800453894     -0.8502258675418904
720000000                -0.4672106865917652      -0.8128772818671539
750000000                -0.5351507449935061      -0.7695467130481068
780000000                -0.5990588853559853      -0.7205635679635488
810000000                -0.6584660181354386      -0.6662991058077463
840000000                -0.7129369493683687      -0.6071636443172029
870000000                -0.7620736674883378      -0.5436034627636598
900000000                -0.8055183438317663      -0.47609742576283076
930000000                -0.8429560228998727      -0.40515335453156737
960000000                -0.8741169811086231      -0.3313041741336833
990000000                -0.8987787351308025      -0.25510386747514974
1020000000               -0.9167676840308222      -0.17712326806955897
1050000000               -0.9279603721044375      -0.0979457256704083
1080000000               -0.9322843628487029      -0.018162679096334254
1110000000               -0.9297187174719431      0.06163082795626606
1140000000               -0.9202940748596534      0.14084065216823846
1170000000               -0.9040923332430861      0.21887804087783025
1200000000               -0.8812459371492131      0.29516407173135817
1230000000               -0.8519367765673849      0.3691340061886117
1260000000               -0.8163947084985488      0.44024152267410455
1290000000               -0.774895714090066       0.5079627963577679
1320000000               -0.72775970766977        0.5718003936941072
1350000000               -0.675348016563901       0.6312869521624983
1380000000               -0.6180605533927531      0.6859886171502588
1410000000               -0.5563327045962578      0.735508210653906
1440000000               -0.4906319613446184      0.779488108498174
1470000000               -0.42145432043703646     0.817612805757505
1500000000               -0.34932048476890326     0.8496111524449248
1530000000               -0.27477189374374905     0.8752582447144978
1560000000               -0.1983666153239291      0.8943769594641119
1590000000               -0.1206751320408273      0.9068391232743747
1620000000               -0.04227605344889778     0.912566309625428
1650000000               0.03624821202013706      0.9115302611327807
1680000000               0.11431579315229215      0.9037529365351556
1710000000               0.19134966782736865      0.8893061849289676
1740000000               0.2667819188015198       0.8683110524973371
1770000000               0.3400579027346332       0.8409367295853125
1800000000               0.41064030257292417      0.8073991484792041
1830000000               0.47801303467429296      0.767959244635936
1860000000               0.5416849835801145       0.7229208962851166
1890000000               0.6011935386958793       0.6726285594665232
1920000000               0.6561079090521595       0.6174646173561205
1950000000               0.7060321938316623       0.5578464647060599
1980000000               0.7506081886554896       0.4942233495132811
2010000000               0.7895179093826464       0.42707299561251305
2040000000               0.8224858173756684       0.3568980311270243
2070000000               0.8492807326178338       0.28422224829324416
2100000000               0.8697174230144271       0.20958672131170633
2130000000               0.8836578607154764       0.13354580869536656
2.16E9                   0.8910121381119911       0.056663066731056755
2.19E9                   0.8917390376284499       -0.020492899988541643
2.22E9                   0.8858462497830666       -0.09735262541189504
2.25E9                   0.8733902330132275       -0.17334998021338657
2.28E9                   0.8544757069793563       -0.2479263520200523
2.31E9                   0.8292547711418621       -0.3205347706630861
2.34E9                   0.7979256474272397       -0.39064393060494185
2.37E9                   0.7607310642958223       -0.45774205536624124
2.4E9                    0.7179563250368116       -0.521340558016979
2.43E9                   0.669927117498234        -0.5809774822869266
2.46E9                   0.6170071063735634       -0.6362207442844592
2.49E9                   0.5595953088971877       -0.6866712037069282
2.52E9                   0.498123223895516        -0.7319655654545122
2.55E9                   0.4330516888160991       -0.7717790727701651
2.58E9                   0.36486747028215627      -0.8058279341649958
2.61E9                   0.29407962349810596      -0.8338714349358999
2.64E9                   0.2212156675068423       -0.8557137049927683
2.67E9                   0.14681762139965535      -0.8712051312755771
2.7E9                    0.07143793928506402      -0.8802434114098816
2.73E9                   -0.004364623680246993    -0.8827742474882485
2.76E9                   -0.08002918428452298     -0.8787916790054373
2.79E9                   -0.15499691427949128     -0.8683380543513248
2.82E9                   -0.22871520351278624     -0.8515036413067829
2.85E9                   -0.3006417729383897      -0.8284258789808441
2.88E9                   -0.3702487069741496      -0.7992882760114384
2.91E9                   -0.4370263745307673      -0.7643189626102225
2.94E9                   -0.5004872086204964      -0.7237889068413285
2.97E9                   -0.5601693152406619      -0.6780098083432243
3.0E9                    -0.6156398833688956      -0.6273316854580571
3.03E9                   -0.6664983693709847      -0.5721401743765676
3.06E9                   -0.7123794308770961      -0.5128535614012261
3.09E9                   -0.7529555872275744      -0.44991957170179814
3.12E9                   -0.78793958581945        -0.3838119400409512
3.15E9                   -0.8170864561457025      -0.3150267908179156
3.18E9                   -0.840195236015677       -0.24407885628084164
3.21E9                   -0.8571103571843315      -0.17149756308321443
3.24E9                   -0.8677226805084459      -0.09782301838930524
3.27E9                   -0.8719701737264626      -0.02360192724447932
3.3E9                    -0.8698382278378646      0.05061652648095754
3.33E9                   -0.8613596110328035      0.12428480332802
3.36E9                   -0.8466140619617438      0.19686110351093866
3.39E9                   -0.8257275269646395      0.26781340231918876
3.42E9                   -0.7988710486403859      0.3366233944884833
3.45E9                   -0.7662593158858468      0.4027903169378402
3.48E9                   -0.7281488882306075      0.4658346203787952
3.51E9                   -0.6848361100617548      0.5253014613107798
3.54E9                   -0.6366547329982786      0.5807639875730773
3.57E9                   -0.5839732674327015      0.6318263922737186
3.6E9                    -0.5271920866615666      0.6781267133778113
3.63E9                   -0.4667403093405863      0.7193393587651846
3.66E9                   -0.4030724876666133      0.7551773397071861
3.69E9                   -0.336665129990502       0.7853941988293207
3.72E9                   -0.2680130872279864      0.8097856218868448
3.75E9                   -0.19762583282121415     0.8281907257756231
3.78E9                   -0.12602366593203557     0.8404930182955042
3.81E9                   -0.05373386712990911     0.8466210282179448
3.84E9                   0.018713164978498932     0.8465486071345444
3.87E9                   0.09078776947797956      0.8402949071891381
3.9E9                    0.16196484623825036      0.8279240406104335
3.93E9                   0.23172762356841564      0.809544427911569
3.96E9                   0.2995713489655751       0.7853078416389812
3.99E9                   0.365006881769391        0.7554081523272901
4.02E9                   0.4275641659815708       0.720079783429015
4.05E9                   0.4867955601808671       0.6795958831620559
4.08E9                   0.5422790003688782       0.6342662235883367
4.11E9                   0.5936209713825921       0.5844348404712022
4.14E9                   0.6404592633321684       0.5304774311287365
4.17E9                   0.6824654917585122       0.47279853070487415
4.2E9                    0.7193473630116863       0.4118284898960502
4.23E9                   0.7508506697321039       0.34802027864352136
4.26E9                   0.7767610044794552       0.28184614093618415
4.29E9                   0.7969051822936575       0.21379412585047763
4.32E9                   0.8111523651943607       0.14436451934730507
4.35E9                   0.8194148831040238       0.07406620124192304
4.38E9                   0.8216487470282949       0.003412951401218372
4.41E9                   0.8178538514628223       -0.06708027036061062
4.44E9                   0.8080738644309137       -0.13690104575268353
4.47E9                   0.792395805277473        -0.20554319536280796
4.5E9                    0.7709493124425038       -0.27251042584041113
4.53E9                   0.7439056057687126       -0.3373199008341604
4.56E9                   0.7114761504224565       -0.39950570963877186
4.59E9                   0.6739110320297481       -0.45862220820782407
4.62E9                   0.6314970551030282       -0.5142472081498806
4.65E9                   0.5845555791022153       -0.565984990734066
4.68E9                   0.5334401083788887       -0.6134691246412722
4.71E9                   0.47853365364141465      -0.6563650681098182
4.74E9                   0.42024588364417836      -0.6943725377280083
4.77E9                   0.35901008646439564      -0.7272276276202883
4.8E9                    0.2952799606940474       -0.7547046636106651
4.83E9                   0.22952625802217616      -0.7766177778445491
4.86E9                   0.162233300534259        -0.7928221902569283
4.89E9                   0.09389539820590419      -0.8032151848361857
4.92E9                   0.025013194163615183     -0.8077367710155263
4.95E9                   -0.04391003292568421     -0.8063700235986506
4.98E9                   -0.11237207901630519     -0.7991410982916228
5.01E9                   -0.17987550694822813     -0.7861189237498878
5.04E9                   -0.24593129118186532     -0.7674145747554441
5.07E9                   -0.31006238693138716     -0.7431803343708282
5.1E9                    -0.37180719783584115     -0.7136084553474253
5.13E9                   -0.43072291852726186     -0.678929632507373
5.16E9                   -0.48638873016317385     -0.6394111984292357
5.19E9                   -0.5384088279317129      -0.5953550548675297
5.22E9                   -0.586415259151868       -0.5470953529444393
5.25E9                   -0.6300705498248466      -0.4949959368903419
5.28E9                   -0.6690700971598417      -0.4394475693348787
5.31E9                   -0.7031443067777554      -0.38086496033798967
5.34E9                   -0.732060456507489       -0.3196836261964146
5.37E9                   -0.7556242732947114      -0.25635660638770486
5.4E9                    -0.7736812145225688      -0.19135106742292887
5.43E9                   -0.7861174489468199      -0.12514482102280544
5.46E9                   -0.792860534730098       -0.05822278225580322
5.49E9                   -0.7938797930974216      0.008926608299360681
5.52E9                   -0.7891863764581054      0.07581497473945115
5.55E9                   -0.7788330302627412      0.14195758445408646
5.58E9                   -0.762913548806612       0.20687689003174856
5.61E9                   -0.7415619269663376      0.27010600798605283
5.64E9                   -0.7149512124896031      0.3311921065796526
5.67E9                   -0.6832920669710703      0.3896996741633056
5.7E9                    -0.6468310479258726      0.4452136396285262
5.73E9                   -0.6058486289667442      0.49734231817711483
5.76E9                   -0.5606569792386088      0.5457201588724047
5.79E9                   -0.5115975257724958      0.5900102751935282
5.82E9                   -0.459038322817308       0.6299067445982947
5.85E9                   -0.4033712506539878      0.6651366667989816
5.88E9                   -0.3450090643706246      0.6954619719647523
5.91E9                   -0.28438231189006297     0.7206809700198119
5.94E9                   -0.22193614108535345     0.7406296315496048
5.97E9                   -0.1581270176325088      0.7551825910104393
6.0E9                    -0.09341937748760182     0.7642538643409466
