% Model:              three_layers reality at 0.1mm.mph
% Version:            COMSOL 5.6.0.280
% Date:               Mar 6 2022, 20:19
% Table:              表格 1 - 全局计算 1
% freq (Hz)              real(emw.S11) (1)        imag(emw.S11) (1)
300000000                0.6017080676821251       -0.7342067893260906
330000000                0.5354289286592714       -0.7830594249803055
360000000                0.46530641624449204      -0.8260101308396127
390000000                0.3918506103058789       -0.8627550436112451
420000000                0.3155983972523732       -0.8930343443943003
450000000                0.23710897434785885      -0.9166347135234508
480000000                0.15695932919056227      -0.9333913032097286
510000000                0.07573967750658905      -0.9431892558119845
540000000                -0.005951137582478339    -0.9459647833195094
570000000                -0.0875102707797355      -0.9417058177161306
600000000                -0.16833550349092158     -0.930452238730715
630000000                -0.24782984961219726     -0.9122956848288493
660000000                -0.32540611113175616     -0.8873789535176034
690000000                -0.4004913513618604      -0.8558949987780935
720000000                -0.47253125596603546     -0.8180855349283969
750000000                -0.5409943490254182      -0.7742392589779922
780000000                -0.6053760334963654      -0.7246897055929994
810000000                -0.6652024249048656      -0.6698127517822174
840000000                -0.7200339488568382      -0.610023790897305
870000000                -0.7694686744831244      -0.545774597883972
900000000                -0.8131453571347041      -0.47754991092148313
930000000                -0.8507461666763473      -0.40586375599911845
960000000                -0.8819990794231055      -0.3312555438958004
990000000                -0.9066799147268481      -0.2542859706267523
1020000000               -0.9246140001208252      -0.17553275407211924
1050000000               -0.9356774518696149      -0.09558624098102622
1080000000               -0.9397980609954755      -0.015044919746131048
1110000000               -0.9369557782399159      0.06548912518884784
1140000000               -0.9271827946987333      0.145414780680898
1170000000               -0.9105632183240993      0.22413645752005476
1200000000               -0.887232349881856       0.3010685918674428
1230000000               -0.8573755653185018      0.3756400598168418
1260000000               -0.82122681474041        0.4472984702213041
1290000000               -0.7790667513886717      0.5155143020750845
1320000000               -0.7312205069120951      0.5797848544285794
1350000000               -0.6780551323241532      0.6396379781878458
1380000000               -0.619976726195735       0.6946355619254623
1410000000               -0.5574272745133264      0.7443767452737291
1440000000               -0.4908812284095593      0.7885008365487225
1470000000               -0.4208418479403697      0.8266899136359616
1500000000               -0.34783734183447185     0.8586710898736932
1530000000               -0.2724168340925046      0.8842184297870873
1560000000               -0.19514618978119797     0.9031545021970979
1590000000               -0.11660373260594775     0.9153515614585646
1620000000               -0.037375887678594746    0.9207323504136801
1650000000               0.04194721712998391      0.9192705217134531
1680000000               0.12077615791637478      0.9109906770953679
1710000000               0.19852659667624303      0.8959680270835385
1740000000               0.2746236059216422       0.8743276763702813
1770000000               0.348505904666949        0.8462435428165762
1800000000               0.41962997506218774      0.8119369206454959
1830000000               0.48747403068666223      0.7716747007166985
1860000000               0.5515418084423956       0.725767263215884
1890000000               0.6113661578604802       0.6745660601736567
1920000000               0.6665124034569598       0.6184609070643221
1950000000               0.7165814571637743       0.5578770049056989
1980000000               0.761212660436992        0.49327171551634763
2010000000               0.8000863373387639       0.425131114320791
2040000000               0.832926042335529        0.35396634615134615
2070000000               0.8595004887429814       0.28030981064015265
2100000000               0.8796251462852308       0.20471120420428096
2130000000               0.8931634984220044       0.12773344618079524
2.16E9                   0.9000279523468742       0.049948516269864296
2.19E9                   0.9001803960448762       -0.028066770229684037
2.22E9                   0.8936323971937011       -0.10573502343721908
2.25E9                   0.8804450376013438       -0.18248255017381326
2.28E9                   0.8607283745861793       -0.2577436064713076
2.31E9                   0.8346405199125884       -0.33096459442868914
2.34E9                   0.8023863331399821       -0.40160815440362846
2.37E9                   0.7642157450070667       -0.4691570942945979
2.4E9                    0.7204217542097702       -0.5331181051530266
2.43E9                   0.6713381591438616       -0.5930252433425285
2.46E9                   0.617337072597337        -0.6484431987766317
2.49E9                   0.5588262252992339       -0.6989703827407335
2.52E9                   0.49624602850181054      -0.7442418422886927
2.55E9                   0.4300663664697417       -0.7839319658408652
2.58E9                   0.36078312024189646      -0.8177569216728197
2.61E9                   0.2889144561280208       -0.8454767771944147
2.64E9                   0.21499692670221188      -0.866897267879883
2.67E9                   0.13958143121441466      -0.8818712026635084
2.7E9                    0.06322907526373545      -0.8902995021816162
2.73E9                   -0.013493036353073152    -0.8921318692098634
2.76E9                   -0.09001604289391807     -0.8873670910934902
2.79E9                   -0.16577357697601444     -0.8760529742658973
2.82E9                   -0.2402059898240254      -0.8582859120353827
2.85E9                   -0.31276452182179937     -0.8342100886431623
2.88E9                   -0.38291538731280766     -0.8040163250465544
2.91E9                   -0.450143743060698       -0.7679405744743577
2.94E9                   -0.5139575098445119      -0.726262078705588
2.97E9                   -0.5738910177546196      -0.6793011988117311
3.0E9                    -0.6295084469776232      -0.6274169367713315
3.03E9                   -0.6804070372028178      -0.5710041671116982
3.06E9                   -0.7262200406657016      -0.5104906001589312
3.09E9                   -0.7666193959564387      -0.44633350070891886
3.12E9                   -0.8013181018857021      -0.37901618809782667
3.15E9                   -0.8300722732853526      -0.30904434542563614
3.18E9                   -0.8526828632831255      -0.23694216722270744
3.21E9                   -0.8689970393772773      -0.16324837617251928
3.24E9                   -0.878909203578143       -0.08851214038942493
3.27E9                   -0.8823616498197979      -0.013288923419169686
3.3E9                    -0.8793448547853879      0.06186370042421574
3.33E9                   -0.8698974012522186      0.1363902329442355
3.36E9                   -0.85410553588434        0.20974140847406697
3.39E9                   -0.8321023662337675      0.28137828797377723
3.42E9                   -0.8040667044607638      0.3507762590908835
3.45E9                   -0.770221567984801       0.4174289114961305
3.48E9                   -0.730832350006494       0.4808517575512726
3.51E9                   -0.6862046755547428      0.5405857695699847
3.54E9                   -0.6366819614787382      0.5962007063174347
3.57E9                   -0.5826427015463352      0.6472982031781291
3.6E9                    -0.5244975003256614      0.693514602731473
3.63E9                   -0.46268588200495125     0.7345235049818978
3.66E9                   -0.397672901957285       0.7700380197568576
3.69E9                   -0.32994559042922544     0.7998127068279826
3.72E9                   -0.26000925835615024     0.8236451927640275
3.75E9                   -0.18838369577607317     0.8413774566786429
3.78E9                   -0.11559929339883297     0.8528967802081594
3.81E9                   -0.04219311733150164     0.8581363602835181
3.84E9                   0.03129503371634073      0.8570755862796435
3.87E9                   0.10432656122150644      0.8497399859381976
3.9E9                    0.1763679640648544       0.8362008464447348
3.93E9                   0.24689467682637734      0.8165745180284619
3.96E9                   0.3153948274902174       0.791021407460411
3.99E9                   0.3813728931966807       0.7597446684398185
4.02E9                   0.4443532322778623       0.7229885957529629
4.05E9                   0.5038834692410433       0.6810367311079393
4.08E9                   0.5595377081352941       0.6342096908136954
4.11E9                   0.610919549236013        0.5828627288143976
4.14E9                   0.6576648847444528       0.5273830523401526
4.17E9                   0.699444451125898        0.46818691108497995
4.2E9                    0.7359661188153226       0.405716483507536
4.23E9                   0.7669769033582814       0.34043658569357915
4.26E9                   0.7922646854759766       0.27283122901880646
4.29E9                   0.8116596305797672       0.20340005273349313
4.32E9                   0.8250353005649242       0.13265465720848388
4.35E9                   0.8323094524576136       0.061114863194174154
4.38E9                   0.8334445198581275       -0.010695077830575803
4.41E9                   0.8284477743703808       -0.08225029690521725
4.44E9                   0.8173711656346381       -0.1530291185963528
4.47E9                   0.8003108403856608       -0.22251684339176916
4.5E9                    0.7774063430929815       -0.29020947462801217
4.53E9                   0.7488395031997392       -0.3556173628423417
4.56E9                   0.7148330165900504       -0.4182687407426081
4.59E9                   0.6756487315778884       -0.477713122528432
4.62E9                   0.631585652383307        -0.5335245423504603
4.65E9                   0.5829776753754352       -0.5853046083344692
4.68E9                   0.5301910754553593       -0.6326853503335162
4.71E9                   0.4736217614294603       -0.6753318416829908
4.74E9                   0.4136923201889131       -0.7129445771767104
4.77E9                   0.3508488702587297       -0.7452615909551994
4.8E9                    0.28555774597921335      -0.7720602991620309
4.83E9                   0.21830203480726348      -0.7931590529972956
4.86E9                   0.1495779917884658       -0.8084183888591725
4.89E9                   0.07989135762951527      -0.8177419637008347
4.92E9                   0.00975360876635314      -0.8210771662055824
4.95E9                   -0.06032183023704363     -0.8184153975064693
4.98E9                   -0.12982338062559365     -0.8097920189975908
5.01E9                   -0.1982450782228794      -0.7952859688169617
5.04E9                   -0.2650902865257132      -0.7750190525134123
5.07E9                   -0.3298753252128414      -0.7491549168510869
5.1E9                    -0.39213298765364835     -0.7178977183116477
5.13E9                   -0.45141592358772353     -0.6814904993563867
5.16E9                   -0.5072998650918799      -0.6402132860599878
5.19E9                   -0.5593866752470088      -0.5943809206012051
5.22E9                   -0.6073071985140919      -0.5443406424680436
5.25E9                   -0.6507238911195539      -0.4904694336682089
5.28E9                   -0.6893332091326455      -0.43317114641892174
5.31E9                   -0.7228677330246186      -0.37287343596262096
5.34E9                   -0.7510980105868993      -0.31002452528582136
5.37E9                   -0.7738341048959052      -0.245089830992761
5.4E9                    -0.7909268390764821      -0.17854848006585766
5.43E9                   -0.802268733809799       -0.11088974576880062
5.46E9                   -0.8077946360277677      -0.04260942887134777
5.49E9                   -0.8074820382909762      0.025793791490526047
5.52E9                   -0.8013510885620214      0.09382201383673922
5.55E9                   -0.7894642902610409      0.16098175349552238
5.58E9                   -0.7719258931914856      0.22678754017597771
5.61E9                   -0.7488809774640185      0.2907654476355031
5.64E9                   -0.7205142349773399      0.35245652795328636
5.67E9                   -0.6870484564862457      0.41142012160346175
5.7E9                    -0.6487427365758741      0.46723701465130274
5.73E9                   -0.6058904136943624      0.5195124156658321
5.76E9                   -0.5588167667884262      0.5678787282785155
5.79E9                   -0.5078764929450316      0.6119981001073262
5.82E9                   -0.45345099091349184     0.651564733988238
5.85E9                   -0.39594547379759365     0.6863069513845788
5.88E9                   -0.33578593184413363     0.7159889996444226
5.91E9                   -0.27341596479603486     0.7404125946181852
5.94E9                   -0.2092935035600803      0.7594181893476714
5.97E9                   -0.14388744274324525     0.7728859593889528
6.0E9                    -0.07767420801449774     0.7807364965328363
