% Model:              three_layers reality at 0.1mm.mph
% Version:            COMSOL 5.6.0.280
% Date:               Feb 23 2022, 20:26
% Table:              表格 1 - 全局计算 1
% freq (Hz)              real(emw.S11) (1)        imag(emw.S11) (1)
300000000                0.446360459331701        -0.8329915446651113
330000000                0.35566190498690364      -0.8733010264197514
360000000                0.261578443857227        -0.9039029416148164
390000000                0.16511149356812282      -0.9245291399357392
420000000                0.0672879262651314       -0.935011507592181
450000000                -0.030850991031772426    -0.935285564030734
480000000                -0.12826095378886643     -0.9253924715646425
510000000                -0.22390608953739966     -0.9054795435829007
540000000                -0.31677037458808166     -0.8757993255575102
570000000                -0.40586884460758227     -0.836707318256706
600000000                -0.490258458276859       -0.7886584130647398
630000000                -0.5690484813239708      -0.7322021130578364
660000000                -0.6414102675185523      -0.6679766197312076
690000000                -0.7065863225479551      -0.5967018723835763
720000000                -0.7638985456547405      -0.5191716357782287
750000000                -0.8127555554901916      -0.43624473905179495
780000000                -0.8526590173063942      -0.3488355771201235
810000000                -0.8832089014275919      -0.25790399233973516
840000000                -0.9041076160105312      -0.16444466010117553
870000000                -0.9151629708283624      -0.06947610669785788
900000000                -0.916289943280273       0.025970509100062013
930000000                -0.9075112323408057      0.12086271786470859
960000000                -0.888956600939287       0.21417803147488487
990000000                -0.8608610218513498      0.3049150738053703
1020000000               -0.8235616564979976      0.3921044220824904
1050000000               -0.7774937098186933      0.4748190353019796
1080000000               -0.7231852174414759      0.5521841526935752
1110000000               -0.6612508335188133      0.6233865528864827
1140000000               -0.592384698745225       0.6876830732357262
1170000000               -0.5173524779649515      0.7444082990528813
1200000000               -0.4369826653890292      0.7929813433893353
1230000000               -0.3521572626184791      0.8329116499185837
1260000000               -0.2638019405149698      0.8638037637332681
1290000000               -0.17287580017807436     0.8853610278064571
1320000000               -0.08036085098662582     0.8973881758035944
1350000000               0.012748674914741721     0.8997928049880252
1380000000               0.10545705258920038      0.8925857258768893
1410000000               0.19677772111194153      0.8758801979322023
1440000000               0.28574375251103085      0.8498900727390377
1470000000               0.3714180221597772       0.8149268777311509
1500000000               0.45290297523028866      0.7713958844527783
1530000000               0.5293498899743562       0.7197912154812967
1560000000               0.5999675457302752       0.6606900534520175
1590000000               0.6640302115132091       0.5947460239815104
1620000000               0.720884879589466        0.5226818316965082
1650000000               0.7699576776266576       0.4452812350260762
1680000000               0.810759402578809        0.36338045079581244
1710000000               0.8428901295648896       0.2778590840325465
1740000000               0.866042859135931        0.18963068183248455
1770000000               0.8800061770263835       0.09963301222860164
1800000000               0.8846659109562183       0.008818170596987208
1830000000               0.8800057800373491       -0.08185738415016688
1860000000               0.8661070430856666       -0.1714427619391073
1890000000               0.843147163168339        -0.25900244345747425
1920000000               0.8113975166156806       -0.34362585627525477
1950000000               0.7712201855081503       -0.4244366356330649
1980000000               0.723063882979523        -0.5006014884577067
2010000000               0.6674590698675886       -0.571338590408187
2040000000               0.6050123276993716       -0.6359254614319296
2070000000               0.5364000543971511       -0.6937062853166492
2100000000               0.4623615401109815       -0.744098664124488
2130000000               0.3836914541244376       -0.786599824939733
2.16E9                   0.3012317198396918       -0.8207923143064513
2.19E9                   0.21586266583832003      -0.8463492013919901
2.22E9                   0.12849322614308498      -0.8630387210437434
2.25E9                   0.040049874789929524     -0.870728067517508
2.28E9                   -0.04853594786077249     -0.869385673743503
2.31E9                   -0.13634172350469687     -0.8590808931256387
2.34E9                   -0.2224679463195093      -0.8399799149414122
2.37E9                   -0.30605021408100463     -0.8123375446595281
2.4E9                    -0.3862668295711418      -0.7764863308449368
2.43E9                   -0.4623409448800104      -0.7328264173351778
2.46E9                   -0.5335392155312303      -0.6818195665597094
2.49E9                   -0.599171022801121       -0.6239882877882631
2.52E9                   -0.6585915969500952      -0.559917736997514
2.55E9                   -0.7112095271521873      -0.490256708178792
2.58E9                   -0.7564966845195384      -0.4157152248179589
2.61E9                   -0.7939980177502804      -0.3370583620965897
2.64E9                   -0.8233395478253993      -0.25509733396990497
2.67E9                   -0.8442340186960404      -0.1706791769708294
2.7E9                    -0.8564843740523236      -0.08467602454913566
2.73E9                   -0.8599854714666153      0.002025486484020795
2.76E9                   -0.8547244167776098      0.08853445757517209
2.79E9                   -0.8407797876605217      0.17396556069776187
2.82E9                   -0.8183199095171214      0.25744845952506545
2.85E9                   -0.7876002763046333      0.3381368204733784
2.88E9                   -0.7489601711531254      0.415216899100727
2.91E9                   -0.7028185262638851      0.4879156698387901
2.94E9                   -0.649669059267599       0.5555084537255726
2.97E9                   -0.5900747276801823      0.6173259909310027
3.0E9                    -0.5246615504531021      0.6727609018513016
3.03E9                   -0.4541118540098159      0.7212734813255668
3.06E9                   -0.37915700814628944     0.7623967745495045
3.09E9                   -0.3005697244722108      0.7957408894168699
3.12E9                   -0.2191559956766314      0.8209965082976002
3.15E9                   -0.13574675790859647     0.8379375716132803
3.18E9                   -0.0511893600719386      0.8464231157040603
3.21E9                   0.033661076914067854     0.8463982572902516
3.24E9                   0.11795033089720644      0.8378943253627128
3.27E9                   0.2008337038996814       0.8210281476241503
3.3E9                    0.28148453146152835      0.7960005019673695
3.33E9                   0.359102508773686        0.7630937439716652
3.36E9                   0.43292176687394124      0.7226686198072406
3.39E9                   0.5022186284766746       0.675160271958185
3.42E9                   0.5663189644566083       0.6210734451582666
3.45E9                   0.6246050594433762       0.5609769046456805
3.48E9                   0.6765218801681698       0.4954970910858804
3.51E9                   0.7215826270939569       0.4253110581700561
3.54E9                   0.7593734432924866       0.3511387702304876
3.57E9                   0.7895571602197387       0.27373487530471025
3.6E9                    0.8118759817858212       0.19388010803534386
3.63E9                   0.8261530462609254       0.11237250821988276
3.66E9                   0.8322928553059598       0.030018657158542635
3.69E9                   0.8302806123155204       -0.05237486822121942
3.72E9                   0.820180560218925        -0.13400964218739267
3.75E9                   0.8021334481271389       -0.21410298556197463
3.78E9                   0.7763532887337825       -0.2918948930419342
3.81E9                   0.7431235967236213       -0.3666542200433145
3.84E9                   0.7027933191168594       -0.43768411649192257
3.87E9                   0.6557726679301652       -0.5043267730354482
3.9E9                    0.6025290259395515       -0.5659676311314249
3.93E9                   0.5435830089204245       -0.6220392759864657
3.96E9                   0.4795046448443458       -0.6720252487226109
3.99E9                   0.41090950639847396      -0.7154639620790615
4.02E9                   0.3384545505816492       -0.7519527892749226
4.05E9                   0.2628334084286859       -0.7811522519313764
4.08E9                   0.1847709330570947       -0.8027901053037575
4.11E9                   0.10501693190855158      -0.8166650449155131
4.14E9                   0.02433914099746346      -0.8226497537227963
4.17E9                   -0.05648439141631272     -0.8206930650210972
4.2E9                    -0.13667328142033314     -0.8108211094302494
4.23E9                   -0.2154529056451338      -0.79313741449488
4.26E9                   -0.29206241040351        -0.7678220071920658
4.29E9                   -0.365762486265498       -0.7351296168860583
4.32E9                   -0.43584282266225655     -0.6953870857560387
4.35E9                   -0.5016292035388598      -0.6489900737424444
4.38E9                   -0.5624902254810883      -0.5963991114605084
4.41E9                   -0.6178436151265191      -0.5381350239831136
4.44E9                   -0.6671621015684854      -0.47477373284523783
4.47E9                   -0.7099787743306257      -0.4069404468453639
4.5E9                    -0.7458918385281227      -0.3353032712603592
4.53E9                   -0.7745686718486803      -0.26056629362457423
4.56E9                   -0.7957490951556738      -0.18346223485307023
4.59E9                   -0.8092477886739098      -0.10474478170779425
4.62E9                   -0.8149558169201964      -0.025180734767498637
4.65E9                   -0.8128412634921885      0.05445788941800126
4.68E9                   -0.802949014620371       0.13340167608569253
4.71E9                   -0.7853997582354926      0.21089145346307492
4.74E9                   -0.7603882736798685      0.286185700267236
4.77E9                   -0.7281810717706207      0.35856769804062827
4.8E9                    -0.6891134113516177      0.42735242401532203
4.83E9                   -0.6435856817208194      0.49189317007577177
4.86E9                   -0.5920591186562354      0.5515878387087078
4.89E9                   -0.5350508276414435      0.60588482167505
4.92E9                   -0.47312812267738985     0.6542883297624256
4.95E9                   -0.4069022433115119      0.6963630272927082
4.98E9                   -0.3370215714415224      0.7317378396748735
5.01E9                   -0.2641645182788735      0.7601088447259182
5.04E9                   -0.1890322783865493      0.7812412215704043
5.07E9                   -0.11234164358313947     0.794970303058026
5.1E9                    -0.0348180309440183      0.8012018433462798
5.13E9                   0.042811189840621294     0.7999116530330528
5.16E9                   0.1198230677685066       0.7911447529113436
5.19E9                   0.19550520889390857      0.775014147907577
5.22E9                   0.2691617769180846       0.7516992387829151
5.25E9                   0.3401194173652787       0.7214438055022291
5.28E9                   0.40773308354126514      0.6845534548268774
5.31E9                   0.4713916502399322       0.6413924507674261
5.34E9                   0.5305231483023857       0.5923799304375461
5.37E9                   0.584599469017423        0.5379856077727657
5.4E9                    0.6331404638854757       0.47872513418816065
5.43E9                   0.6757174648350841       0.4151552891576342
5.46E9                   0.7119563283024484       0.3478691183978036
5.49E9                   0.7415401357104088       0.27749105098605725
5.52E9                   0.7642116591052801       0.20467194400489497
5.55E9                   0.7797756390810474       0.13008394958256772
5.58E9                   0.7881008444098765       0.054415085399215336
5.61E9                   0.7891218089309167       -0.02163658467732718
5.64E9                   0.7828400865255255       -0.09736919466000812
5.67E9                   0.7693248421857132       -0.17208369816564448
5.7E9                    0.7487126174813256       -0.24509073058490177
5.73E9                   0.7212061772782186       -0.31571750009218064
5.76E9                   0.6870724501925753       -0.38331446691244814
5.79E9                   0.646639684430653        -0.44726160771147594
5.82E9                   0.6002940074127143       -0.5069741582205615
5.85E9                   0.5484755705271537       -0.5619078412013652
5.88E9                   0.4916743867352059       -0.6115636645791733
5.91E9                   0.4304258714342799       -0.6554923838915899
5.94E9                   0.3653060259567571       -0.6932986714136785
5.97E9                   0.2969261849347847       -0.7246449575184892
6.0E9                    0.22592727865606596      -0.7492548453618497
