% Model:              three_layers reality at 0.1mm.mph
% Version:            COMSOL 5.6.0.280
% Date:               Feb 24 2022, 20:38
% Table:              表格 1 - 全局计算 1
% freq (Hz)              real(emw.S11) (1)        imag(emw.S11) (1)
300000000                0.5971268169035018       -0.7280511769599073
330000000                0.5314964838155268       -0.7764572385285184
360000000                0.4620566535892703       -0.8190303619006877
390000000                0.3893121857727847       -0.8554671474428658
420000000                0.31379464156575204      -0.8855086627529444
450000000                0.23605767924389945      -0.9089425984197176
480000000                0.1566724992886407       -0.9256050252508999
510000000                0.07622329079646734      -0.9353817551626179
540000000                -0.0046973352445848      -0.9382093049464333
570000000                -0.08549292228574182     -0.9340754616919664
600000000                -0.1655677382440727      -0.9230194492411163
630000000                -0.24433131786948206     -0.9051316966161256
660000000                -0.3212029507497336      -0.8805532113735426
690000000                -0.39561608682663296     -0.8494745630513963
720000000                -0.4670226289951287      -0.8121344845984209
750000000                -0.534897082079173       -0.7688181024491579
780000000                -0.5987405282657878      -0.7198548083028022
810000000                -0.6580843984633966      -0.6656157889560577
840000000                -0.7124940109908718      -0.606511232997863
870000000                -0.7615718503653032      -0.5429872356053206
900000000                -0.8049605601689186      -0.47552242573663117
930000000                -0.8423456266935908      -0.40462434182747775
960000000                -0.873457732015009       -0.33082558454559213
990000000                -0.8980747579171308      -0.254679776889594
1020000000               -0.9160234247275465      -0.17675736390350505
1050000000               -0.9271805523307117      -0.09764128513056224
1080000000               -0.9314739335193934      -0.017922554563556556
1110000000               -0.9288828132126286      0.061804216833332065
1140000000               -0.9194379702936225      0.14094532003971574
1170000000               -0.9032214021845073      0.2189124328755377
1200000000               -0.8803656155809885      0.295127054810309
1230000000               -0.8510525300536669      0.36902485692069714
1260000000               -0.8155120044388622      0.44005991260988364
1290000000               -0.7740199990385312      0.5077087759968065
1320000000               -0.7268963895216602      0.5714743765482438
1350000000               -0.6745024514593898      0.6308896996977178
1380000000               -0.6172380365426181      0.6855212260300108
1410000000               -0.5555384643992672      0.7349721029518431
1440000000               -0.48987115567908285     0.7788850257421692
1470000000               -0.42073203415365124     0.8169448071862524
1500000000               -0.3486417269497426      0.848880617873353
1530000000               -0.2741415935907591      0.8744678818803462
1560000000               -0.19778961531047728     0.8935298156077988
1590000000               -0.12015617708934663     0.9059386003721501
1620000000               -0.04181977501268328     0.9116161824166146
1650000000               0.036637317876976994     0.910534696851494
1680000000               0.11463339462560906      0.9027165150333094
1710000000               0.19159163341829563      0.888233917690682
1740000000               0.26694436101100066      0.8672083989114322
1770000000               0.3401372292289585       0.8398096087396967
1800000000               0.41063327427067586      0.8062539447703115
1830000000               0.47791683023051307      0.7668028053859595
1860000000               0.5414972689250886       0.7217605197851554
1890000000               0.6009125403222235       0.6714719718522755
1920000000               0.6557324891032735       0.6163199370717876
1950000000               0.7055619250456516       0.5567221532859471
1980000000               0.7500434264754322       0.49312814802900107
2010000000               0.7888598585057629       0.4260158462127923
2040000000               0.8217365894885443       0.3558879836091489
2070000000               0.8484433914991549       0.2832683524856778
2100000000               0.8687960128998239       0.20869790663138688
2130000000               0.8826574131968408       0.13273075400114992
2.16E9                   0.8899386528783048       0.05593006540917635
2.19E9                   0.8905994331061629       -0.021136071396830765
2.22E9                   0.8846482826488068       -0.09789882326285285
2.25E9                   0.8721423916976043       -0.17379277941046267
2.28E9                   0.8531870946083391       -0.2482600863189334
2.31E9                   0.8279350058721747       -0.32075452117527964
2.34E9                   0.7965848157921109       -0.3907454757981498
2.37E9                   0.7593797543449526       -0.4577218237849587
2.4E9                    0.7166057332810205       -0.5211956447608997
2.43E9                   0.6685891779697166       -0.5807057800118436
2.46E9                   0.6156945610991035       -0.635821194676548
2.49E9                   0.5583216517048326       -0.6861441203470132
2.52E9                   0.4969024947263897       -0.7313129505124301
2.55E9                   0.4318981413514893       -0.7710048584178926
2.58E9                   0.36379515908181         -0.8049381065790864
2.61E9                   0.2931019616035327       -0.8328740229304125
2.64E9                   0.22034500619862724      -0.8546186329852404
2.67E9                   0.14606490210433984      -0.8700239562097103
2.7E9                    0.07081245552113735      -0.8789889859015778
2.73E9                   -0.0048553433414655345   -0.8814603653564964
2.76E9                   -0.08037939239417824     -0.8774327531761017
2.79E9                   -0.1552025989846939      -0.8669488535474814
2.82E9                   -0.2287740200094139      -0.850099085423421
2.85E9                   -0.30055297655381397     -0.8270208764959206
2.88E9                   -0.3700130960975915      -0.7978975833561666
2.91E9                   -0.4366462405447813      -0.7629570503943103
2.94E9                   -0.499966285098801       -0.722469825401651
2.97E9                   -0.5595127188964586      -0.6767470512377027
3.0E9                    -0.6148540412171407      -0.6261380534610581
3.03E9                   -0.6655909294144536      -0.5710276441068933
3.06E9                   -0.7113591557730179      -0.5118331630979185
3.09E9                   -0.751832232127758       -0.4490012801525361
3.12E9                   -0.786723762599237       -0.3830045819938389
3.15E9                   -0.8157894870028214      -0.31433797119184514
3.18E9                   -0.8388289995986075      -0.24351490486790905
3.21E9                   -0.8556871306127447      -0.1710635025682753
3.24E9                   -0.866254980554373       -0.09752255393002968
3.27E9                   -0.8704706002711128      -0.023437457441797663
3.3E9                    -0.8683193125902222      0.050643877944290885
3.33E9                   -0.859833674307722       0.12417513612201843
3.36E9                   -0.8450930802807168      0.19661567041701117
3.39E9                   -0.8242230142210247      0.26743452163963294
3.42E9                   -0.7973939536685528      0.33611434682626556
3.45E9                   -0.7648199393529324      0.40215522864279213
3.48E9                   -0.7267568218378974      0.4650783365310869
3.51E9                   -0.6835002008176828      0.52442941224252
3.54E9                   -0.635383074857085       0.5797820538521172
3.57E9                   -0.5827732215193078      0.6307407743372848
3.6E9                    -0.5260703298200443      0.676943812787534
3.63E9                   -0.46570290871339926     0.7180656785531858
3.66E9                   -0.40212499686550296     0.7538194109762575
3.69E9                   -0.3358127000657102      0.7839585399405317
3.72E9                   -0.2672605837340351      0.8082787348662693
3.75E9                   -0.19697794854416026     0.8266191324001672
3.78E9                   -0.12548501753023036     0.8388633355229829
3.81E9                   -0.053309063553652086    0.844940079095859
3.84E9                   0.01901949421708107      0.8448235593115255
3.87E9                   0.09097099580518275      0.838533426712526
3.9E9                    0.16202041908882503      0.8261344448454349
3.93E9                   0.2316512028667802       0.8077358190477917
3.96E9                   0.2993589859040117       0.7834902025238444
3.99E9                   0.36465523427889157      0.7535923895995594
4.02E9                   0.4270707303274346       0.7182777089401188
4.05E9                   0.48615889842854226      0.6778201321602642
4.08E9                   0.5414989449545067       0.6325301156056667
4.11E9                   0.5926987925060054       0.5827521946486701
4.14E9                   0.6393977911006474       0.5288623506797754
4.17E9                   0.6812691910910286       0.47126517129540063
4.2E9                    0.7180223643282226       0.41039082399476756
4.23E9                   0.7494047609087566       0.34669186404430197
4.26E9                   0.7752035896802429       0.2806398979644468
4.29E9                   0.7952472118992298       0.2127221252668072
4.32E9                   0.8094062391436012       0.14343778246664596
4.35E9                   0.8175943289176779       0.07329451434786638
4.38E9                   0.8197686738956804       0.0028046976402981896
4.41E9                   0.8159301828937928       -0.06751825780217145
4.44E9                   0.8061233534319983       -0.13716360598670516
4.47E9                   0.7904358369854215       -0.20562693566878665
4.5E9                    0.7689976992589891       -0.2724137909241695
4.53E9                   0.7419803792761837       -0.33704321672536763
4.56E9                   0.7095953530095692       -0.39905120442907815
4.59E9                   0.6720925097001026       -0.4579940118240149
4.62E9                   0.6297582517006302       -0.5134513327432256
4.65E9                   0.5829133315015004       -0.5650292920311727
4.68E9                   0.5319104421696123       -0.6123632432282878
4.71E9                   0.47713157982319604      -0.6551203481063894
4.74E9                   0.4189851985340649       -0.693001919564725
4.77E9                   0.3579031792809129       -0.7257455117626854
4.8E9                    0.2943376354820213       -0.75312674352905
4.83E9                   0.228757578014276        -0.7749608431251528
4.86E9                   0.16164546307760919      -0.7911039040258979
4.89E9                   0.09349364682549927      -0.8014538428120912
4.92E9                   0.024800771549943337     -0.8059510516858819
4.95E9                   -0.043931890880989144    -0.8045787398604759
4.98E9                   -0.1122041115531875      -0.797362960088787
5.01E9                   -0.17952036556599948     -0.7843723190311557
5.04E9                   -0.24539345368815121     -0.765717372782407
5.07E9                   -0.3093480565603158      -0.741549711698319
5.1E9                    -0.37092419388872033     -0.7120607414846147
5.13E9                   -0.4296805616333028      -0.6774801703951314
5.16E9                   -0.4851977215580865      -0.6380742151090524
5.19E9                   -0.5370811191008947      -0.5941435403703242
5.22E9                   -0.5849639076385265      -0.5460209494532828
5.25E9                   -0.6285095592522585      -0.49406884402824364
5.28E9                   -0.6674142441205144      -0.43867647283233935
5.31E9                   -0.7014089620074968      -0.38025698938055025
5.34E9                   -0.7302614104081719      -0.31924433991045825
5.37E9                   -0.7537775749757277      -0.2560900041720416
5.4E9                    -0.7718030292552536      -0.19125961369858163
5.43E9                   -0.7842239329912515      -0.12522947402821547
5.46E9                   -0.7909677210884597      -0.05848301910500682
5.49E9                   -0.7920034786490139      0.00849277309431005
5.52E9                   -0.7873420009068303      0.07521097410774602
5.55E9                   -0.7770355403218648      0.14118827878209828
5.58E9                   -0.7611772462348884      0.2059485310887359
5.61E9                   -0.7399003053365663      0.2690261752980423
5.64E9                   -0.7133767935300868      0.32996960781760454
5.67E9                   -0.681816251324375       0.3883444070727266
5.7E9                    -0.6454639956448114      0.4437364208429518
5.73E9                   -0.6045991811249328      0.49575469157207463
5.76E9                   -0.5595326242686984      0.544034200384201
5.79E9                   -0.5106044050720441      0.5882384100703323
5.82E9                   -0.4581812634491207      0.6280615868938804
5.85E9                   -0.4026538113261479      0.6632308822693469
5.88E9                   -0.3444335847808928      0.693508158152524
5.91E9                   -0.28394996261187905     0.7186915442309685
5.94E9                   -0.22164697794809102     0.7386167193616675
5.97E9                   -0.15798004845246344     0.7531579131703152
6.0E9                    -0.09341264902013596     0.7622286260058518
