% Model:              three_layers reality at 0.1mm.mph
% Version:            COMSOL 5.6.0.280
% Date:               Mar 1 2022, 09:16
% Table:              表格 1 - 全局计算 1
% freq (Hz)              real(emw.S11) (1)        imag(emw.S11) (1)
300000000                0.5419108343507432       -0.7326668237380668
330000000                0.47264914493754717      -0.7775363878972325
360000000                0.39981456220552386      -0.8160025276198892
390000000                0.32397468472589175      -0.8477736814270438
420000000                0.2457256441347136       -0.8726093146139253
450000000                0.16568641742388338      -0.8903225658925525
480000000                0.08449323211532214      -0.9007823562209778
510000000                0.0027939887216753335    -0.9039149714790391
540000000                -0.07875732739268458     -0.8997051223844752
570000000                -0.15950624411503825     -0.8881964807900622
600000000                -0.23880339212939053     -0.8694916903415528
630000000                -0.3160100570707287      -0.8437518503784303
660000000                -0.39050365689831923     -0.8111954742188185
690000000                -0.46168310282109765     -0.7720969264394726
720000000                -0.5289739983559655      -0.7267843480844901
750000000                -0.5918336302092871      -0.6756370831377629
780000000                -0.6497557028533943      -0.6190826253579734
810000000                -0.7022747704418784      -0.5575931092951355
840000000                -0.7489703203845416      -0.49168137516090005
870000000                -0.7894704657646836      -0.4218966422004313
900000000                -0.8234552067271252      -0.3488198306275543
930000000                -0.8506592253870258      -0.273058576459656
960000000                -0.870874183326921       -0.19524198804997905
990000000                -0.8839504962079445      -0.11601519679182126
1020000000               -0.8897985660969673      -0.036033756822629
1050000000               -0.8883894581759523      0.044042048588265714
1080000000               -0.8797550152964976      0.12355293569588638
1110000000               -0.8639874104687011      0.2018463248881177
1140000000               -0.8412381441712005      0.27828196274638967
1170000000               -0.8117164999366193      0.35223740456766817
1200000000               -0.775687478073077       0.4231133023138249
1230000000               -0.73346923334084        0.49033844608135624
1260000000               -0.6854300478779094      0.5533745109214422
1290000000               -0.6319848756219871      0.6117204650485224
1320000000               -0.5735914986638998      0.6649166004667874
1350000000               -0.5107463395874353      0.7125481521908585
1380000000               -0.44397997650721355     0.7542484779467734
1410000000               -0.3738524096449262      0.789701775869339
1440000000               -0.3009481294022394      0.8186453236340328
1470000000               -0.22587103641188247     0.8408712281679709
1500000000               -0.14923926382198724     0.8562276807229084
1530000000               -0.07167995119529351     0.8646197174514516
1560000000               0.00617598218613118      0.8660094907177784
1590000000               0.08369901874091959      0.8604160609771919
1620000000               0.16026613523829225      0.8479147233085262
1650000000               0.23526576625804588      0.8286358864196735
1680000000               0.3081026007571419       0.802763525191778
1710000000               0.3782021775648847       0.7705332305861905
1740000000               0.4450152488627733       0.7322298830074983
1770000000               0.5080218842285452       0.6881849769893238
1800000000               0.5667352910245388       0.6387736265082194
1830000000               0.620705330496708        0.584411281105053
1860000000               0.669521711987391        0.525550183671513
1890000000               0.7128168508647783       0.4626756010685491
1920000000               0.7502683787798219       0.39630185871404044
1950000000               0.7816012977880146       0.3269682099990412
1980000000               0.8065897725950884       0.25523457103205116
2010000000               0.8250585581812914       0.1816771499316645
2040000000               0.8368840625217463       0.10688399892733005
2070000000               0.8419950468752155       0.031450514819823125
2100000000               0.8403729679399075       -0.04402508966344288
2130000000               0.8320519667648416       -0.11894632626698996
2.16E9                   0.8171185067178244       -0.19272297241546937
2.19E9                   0.7957106544516954       -0.2647756090047114
2.22E9                   0.768016980707833        -0.3345401531163673
2.25E9                   0.7342750315167266       -0.4014723732412452
2.28E9                   0.694769293999812        -0.4650523365235901
2.31E9                   0.6498285814522742       -0.5247886643383262
2.34E9                   0.5998228324960465       -0.5802223846530955
2.37E9                   0.5451594803360903       -0.630930141686986
2.4E9                    0.48627973365129357      -0.6765266522314093
2.43E9                   0.4236551485104187       -0.7166665873356455
2.46E9                   0.3577846331985184       -0.7510463156132161
2.49E9                   0.2891916404437124       -0.779405914111889
2.52E9                   0.2184210845315697       -0.8015315193444889
2.55E9                   0.14603564417913245      -0.8172577369932302
2.58E9                   0.07261141879451004      -0.8264697183428975
2.61E9                   -0.001266865015977281    -0.8291046390914103
2.64E9                   -0.07501084914832852     -0.8251525062584636
2.67E9                   -0.14803355956386496     -0.8146563410311146
2.7E9                    -0.21975434380525663     -0.7977118203741507
2.73E9                   -0.289603688650638       -0.774466446414428
2.76E9                   -0.35702789933560153     -0.7451182868983827
2.79E9                   -0.4214936249294372      -0.709914310283401
2.82E9                   -0.4824922094744376      -0.6691483289659703
2.85E9                   -0.539543842456803       -0.6231585615261391
2.88E9                   -0.592201477522575       -0.5723248267322939
2.91E9                   -0.640054485962092       -0.5170653860607555
2.94E9                   -0.682732011003356       -0.4578334562226716
2.97E9                   -0.7199059898755581      -0.3951134181874105
3.0E9                    -0.7512938129204806      -0.3294167536832255
3.03E9                   -0.7766605920336347      -0.26127774445151203
3.06E9                   -0.7958210146381044      -0.19124897302314006
3.09E9                   -0.8086407637069452      -0.11989666698585683
3.12E9                   -0.815037489338682       -0.047795930753775084
3.15E9                   -0.814981322448757       0.024474089409459172
3.18E9                   -0.8084949265132377      0.09633506073545509
3.21E9                   -0.7956530885494912      0.1672142934311834
3.24E9                   -0.7765818555190283      0.23654949887084534
3.27E9                   -0.7514572269678909      0.3037934325597695
3.3E9                    -0.7205034187760242      0.36841837993850013
3.33E9                   -0.683990716485864       0.42992044505989413
3.36E9                   -0.6422329397632818      0.4878236044325453
3.39E9                   -0.5955845425000638      0.5416834901161462
3.42E9                   -0.5444373759889787      0.5910908679581194
3.45E9                   -0.4892171458427235      0.6356747785230596
3.48E9                   -0.4303795972601693      0.6751053100247147
3.51E9                   -0.3684064677509623      0.7090959751357666
3.54E9                   -0.30380125154539084     0.7374056673098877
3.57E9                   -0.23708482496957395     0.7598401778270231
3.6E9                    -0.16879098625293204     0.7762532623655183
3.63E9                   -0.09946196527965229     0.7865472552584182
3.66E9                   -0.02964395826847408     0.7906732395467999
3.69E9                   0.04011726117046486      0.7886307904374448
3.72E9                   0.10928060861690946      0.7804673176274923
3.75E9                   0.1773137938760769       0.7662770381001933
3.78E9                   0.2436972325953274       0.7461996158008295
3.81E9                   0.3079277410745553       0.7204185084430159
3.84E9                   0.36952200127847484      0.6891590638540097
3.87E9                   0.42801979528341366      0.6526864067747281
3.9E9                    0.48298702056671916      0.6113031497799298
3.93E9                   0.5340185055436868       0.5653469487537496
3.96E9                   0.580740645083431        0.5151879066812737
3.99E9                   0.6228138665306407       0.46122581478979763
4.02E9                   0.6599349206176996       0.4038872125580783
4.05E9                   0.6918389737192321       0.34362225083534953
4.08E9                   0.7183014642452911       0.28090135443664643
4.11E9                   0.7391396807660524       0.21621169781529828
4.14E9                   0.7542140235378437       0.15005352449006423
4.17E9                   0.7634289223188588       0.08293635341204858
4.2E9                    0.7667333981320781       0.015375120718491092
4.23E9                   0.7641212707559064       -0.05211369633780238
4.26E9                   0.7556310242563811       -0.11901593357172068
4.29E9                   0.7413453480726155       -0.1848235419817933
4.32E9                   0.721390371113974        -0.24903831664533127
4.35E9                   0.695934602499304        -0.3111755372362208
4.38E9                   0.6651875873807676       -0.37076750704903466
4.41E9                   0.6293982820490922       -0.42736697573167226
4.44E9                   0.5888531508144007       -0.48055042705242124
4.47E9                   0.5438739883733632       -0.5299212086685149
4.5E9                    0.4948154750036796       -0.5751124775544829
4.53E9                   0.4420624770506681       -0.6157899332171883
4.56E9                   0.38602711078057406      -0.6516543113779756
4.59E9                   0.32714559300087775      -0.6824436133671576
4.62E9                   0.26587490605062         -0.7079350508688615
4.65E9                   0.2026893071427196       -0.7279466912913444
4.68E9                   0.13807671187184703      -0.7423387950346565
4.71E9                   0.07253497889585461      -0.7510148407081295
4.74E9                   0.006568118442534399     -0.7539222363582903
4.77E9                   -0.05931755675425592     -0.7510527132377032
4.8E9                    -0.12461732063067377     -0.7424423942813233
4.83E9                   -0.18883194248619883     -0.7281715246184174
4.86E9                   -0.25147158730841296     -0.7083638491230013
4.89E9                   -0.3120596707504653      -0.683185624337427
4.92E9                   -0.370136623771842       -0.6528442595886489
4.95E9                   -0.42526351756140424     -0.6175865933795754
4.98E9                   -0.4770255002116095      -0.5776968238578493
5.01E9                   -0.5250350024369576      -0.5334941238996121
5.04E9                   -0.568934679819641       -0.4853299798653689
5.07E9                   -0.6084000718297593      -0.43358529664573775
5.1E9                    -0.6431419706491269      -0.37866730913254176
5.13E9                   -0.6729085023482683      -0.321006331969911
5.16E9                   -0.6974869259530485      -0.2610523675557338
5.19E9                   -0.7167051505688046      -0.19927158147518748
5.22E9                   -0.7304329587732786      -0.13614265030791264
5.25E9                   -0.7385829115383924      -0.07215299293081916
5.28E9                   -0.7411109036196901      -0.007794911711148114
5.31E9                   -0.7380163438549397      0.056438311790671984
5.34E9                   -0.7293419515718359      0.12005630999330562
5.37E9                   -0.7151731815964688      0.18257545477908282
5.4E9                    -0.695637307201002       0.2435225707750518
5.43E9                   -0.6709021966657801      0.30243850998651456
5.46E9                   -0.6411748143177368      0.3588815776480284
5.49E9                   -0.606699465190232       0.41243080791699305
5.52E9                   -0.5677557896717184      0.4626890878537774
5.55E9                   -0.5246565054094088      0.5092861208281679
5.58E9                   -0.47774489075222254     0.5518812094287334
5.61E9                   -0.42739200751571294     0.590165826478715
5.64E9                   -0.3739936702668488      0.6238659335475534
5.67E9                   -0.317967183637814       0.6527440016159315
5.7E9                    -0.2597478862793187      0.6766006910612289
5.73E9                   -0.19978555626081304     0.6952761595203537
5.76E9                   -0.1385407420504432      0.7086509861407022
5.79E9                   -0.07648108076307061     0.7166467239235598
5.82E9                   -0.01407765022258083     0.7192261099579143
5.85E9                   0.048198620327080555     0.7163929687301858
5.88E9                   0.10988047429205992      0.7081918352913196
5.91E9                   0.17050778713880527      0.6947073091326097
5.94E9                   0.2296309566537641       0.6760631354512665
5.97E9                   0.28681420760821136      0.6524210045039679
6.0E9                    0.34163878250324853      0.6239790627558315
