% Model:              cali 1.68 0.57mm.mph
% Version:            COMSOL 5.6.0.280
% Date:               Feb 18 2022, 16:43
% Table:              表格 1 - 全局计算 1
% freq (Hz)              real(emw.S11) (1)        imag(emw.S11) (1)
300000000                0.6319661719124522       -0.7488323647117782
330000000                0.5640918843674125       -0.7995143449512933
360000000                0.4922410662629304       -0.8439268014570024
390000000                0.4170090534984711       -0.8817710510249072
420000000                0.3390108028040418       -0.9128070579913938
450000000                0.2588748732750174       -0.9368540987381675
480000000                0.17723754399155142      -0.9537907918025268
510000000                0.09473713194081129      -0.9635545436057479
540000000                0.01200856273221458      -0.9661404645143646
570000000                -0.07032176489905276     -0.9615998122984293
600000000                -0.15164079051233764     -0.9500380203070531
630000000                -0.231353259110905       -0.9316123661159623
660000000                -0.30888583149188964     -0.9065293334839727
690000000                -0.38369083258175807     -0.8750417166895268
720000000                -0.4552496379518325      -0.8374455119102788
750000000                -0.5230757030548098      -0.7940766355613909
780000000                -0.5867172421473922      -0.7453075050863895
810000000                -0.6457595661934905      -0.6915435132085447
840000000                -0.6998270897241275      -0.6332194228535548
870000000                -0.7485850172721         -0.570795706273295
900000000                -0.7917407192795157      -0.5047548495140542
930000000                -0.8290448074739797      -0.43559764060807443
960000000                -0.8602919186370814      -0.3638394585024991
990000000                -0.8853212152162304      -0.29000657836072546
1020000000               -0.9040166105897346      -0.21463250805186382
1050000000               -0.9163067263062974      -0.1382543702918416
1080000000               -0.922164588425858       -0.06140934462709022
1110000000               -0.921607070069978       0.015368816572528855
1140000000               -0.9146940875012879      0.09155318391558394
1170000000               -0.901527557516554       0.16662694418924673
1200000000               -0.8822501246096641      0.24008657669717748
1230000000               -0.8570436672052409      0.3114448983659553
1260000000               -0.82612759325204        0.38023396356252226
1290000000               -0.7897569365109152      0.4460078049378739
1320000000               -0.7482202660662223      0.5083450019860575
1350000000               -0.7018374226392416      0.5668510649726751
1380000000               -0.6509570964732542      0.6211606225778704
1410000000               -0.5959542624900779      0.6709394028637001
1440000000               -0.537227489481808       0.7158859982249347
1470000000               -0.47519614069576743     0.7557334065957289
1500000000               -0.41029748399713406     0.7902503424424459
1530000000               -0.34298373014674155     0.8192423127731638
1560000000               -0.2737190180294999      0.8425524549883763
1590000000               -0.2029763657668717      0.8600621350144074
1620000000               -0.1312346065493802      0.8716913058016846
1650000000               -0.05897532772258565     0.8773986278527517
1680000000               0.013320168681304168     0.8771813549508072
1710000000               0.08517386656378836      0.8710749897113707
1740000000               0.15611398061129586      0.8591527148628981
1770000000               0.2256778294658881       0.8415246073854297
1800000000               0.29341462210752933      0.8183366436860414
1830000000               0.3588881432829622       0.7897695049537627
1860000000               0.42167932491679744      0.7560371926378976
1890000000               0.4813886913393258       0.7173854646917621
1920000000               0.537638667247743        0.6740901038283049
1950000000               0.5900757383679054       0.6264550294601192
1980000000               0.6383724556525543       0.57481026546188
2010000000               0.6822292750144392       0.5195097760536519
2040000000               0.7213762253437473       0.4609291824090492
2070000000               0.7555743985076568       0.3994633727244008
2100000000               0.7846172558908826       0.33552401850454927
2130000000               0.8083317467404051       0.2695370099797186
2.16E9                   0.8265792343577854       0.2019398235503277
2.19E9                   0.8392562268703376       0.13317883412668882
2.22E9                   0.8462949099097671       0.06370658540336527
2.25E9                   0.84766347921259         -0.006020969049651062
2.28E9                   0.8433662717121359       -0.07554724079010673
2.31E9                   0.8334436943002598       -0.14441778461142235
2.34E9                   0.8179719500221317       -0.21218306652084912
2.37E9                   0.7970625620636757       -0.27840120846536853
2.4E9                    0.7708616965237358       -0.34264069633998395
2.43E9                   0.7395492856093843       -0.4044830378697082
2.46E9                   0.7033379535707738       -0.46352535676126644
2.49E9                   0.6624717485302523       -0.5193829092574982
2.52E9                   0.6172246840953879       -0.5716915092910113
2.55E9                   0.5678990955812332       -0.6201098482267814
2.58E9                   0.5148238167154666       -0.6643216950530684
2.61E9                   0.45835218366555375      -0.7040379630312033
2.64E9                   0.39885987440398163      -0.7389986288064231
2.67E9                   0.33674259268980866      -0.7689744901501044
2.7E9                    0.2724136071362409       -0.7937687488666201
2.73E9                   0.20630115716761654      -0.8132184057951855
2.76E9                   0.13884573906386885      -0.8271954554090999
2.79E9                   0.07049728653921009      -0.8356078682796997
2.82E9                   0.001712261758503253     -0.8384003505453166
2.85E9                   -0.0670493260787465      -0.8355548706219198
2.88E9                   -0.13532695616509402     -0.8270909446389958
2.91E9                   -0.20266266588888318     -0.8130656735188899
2.94E9                   -0.2686041344000499      -0.7935735262353919
2.97E9                   -0.33270775824847265     -0.7687458655777674
3.0E9                    -0.3945416967486328      -0.7387502147017005
3.03E9                   -0.4536888641216641      -0.7037892648329586
3.06E9                   -0.5097498450040361      -0.6640996267624988
3.09E9                   -0.5623457100001762      -0.6199503310154083
3.12E9                   -0.6111207079070384      -0.5716410840571147
3.15E9                   -0.655744811831886       -0.5195002902319816
3.18E9                   -0.6959160970714249      -0.4638828515802357
3.21E9                   -0.731362929672637       -0.4051677600061572
3.24E9                   -0.7618459459048702      -0.34375549850335485
3.27E9                   -0.7871598044100762      -0.280065270315859
3.3E9                    -0.8071346946870404      -0.21453207678576747
3.33E9                   -0.8216375875705166      -0.1476036664890792
3.36E9                   -0.8305732157004919      -0.07973737966380608
3.39E9                   -0.833884774382241       -0.011396913345386518
3.42E9                   -0.8315543358989864      0.05695096656426273
3.45E9                   -0.82360297301972        0.1248397392123666
3.48E9                   -0.8100905902801566      0.1918064413993753
3.51E9                   -0.7911154644314857      0.2573949514595975
3.54E9                   -0.7668134982835828      0.32115921733680924
3.57E9                   -0.7373571949405553      0.3826664024103324
3.6E9                    -0.7029543620723081      0.44149992361633583
3.63E9                   -0.6638465584113583      0.497262357592994
3.66E9                   -0.6203072969351726      0.5495781922423312
3.69E9                   -0.5726400213421896      0.5980964027539096
3.72E9                   -0.521175874223612       0.6424928332274198
3.75E9                   -0.46627127696036336     0.6824723670806888
3.78E9                   -0.40830534259439455     0.7177708717835961
3.81E9                   -0.3476771440192983      0.7481569057083202
3.84E9                   -0.2848028605005446      0.7734331773330846
3.87E9                   -0.22011282602129756     0.7934377493957865
3.9E9                    -0.1540485031753022      0.8080449829612082
3.93E9                   -0.08705940620987285     0.8171662186996813
3.96E9                   -0.019599996594594063    0.8207501948981595
3.99E9                   0.047873426071445915     0.8187832038754911
4.02E9                   0.11490581567940872      0.8112889904789393
4.05E9                   0.18104643257331274      0.7983283982104951
4.08E9                   0.245851837682347        0.7799987702338304
4.11E9                   0.3088888088899904       0.7564331140203884
4.14E9                   0.3697371619534545       0.7277990397297531
4.17E9                   0.42799245966038274      0.6942974835433826
4.2E9                    0.48326859433321945      0.656161228073135
4.23E9                   0.5352002300684829       0.6136532327657862
4.26E9                   0.5834450925710666       0.567064787741909
4.29E9                   0.627686095621911        0.5167135050130554
4.32E9                   0.6676332945392812       0.46294116131342333
4.35E9                   0.7030256581191079       0.4061114070395391
4.38E9                   0.7336326516710436       0.3466073559524727
4.41E9                   0.7592556248015996       0.2848290704495484
4.44E9                   0.779728998648789        0.22119095718169854
4.47E9                   0.7949212481616194       0.15611908793740004
4.5E9                    0.804735675987315        0.0900484606100374
4.53E9                   0.8091109753759146       0.023420215060795353
4.56E9                   0.8080215803430733       -0.04332118134397235
4.59E9                   0.8014778021415477       -0.10973076387810968
4.62E9                   0.7895257518407359       -0.1753659016671624
4.65E9                   0.7722470495203666       -0.2397891155210862
4.68E9                   0.7497583213010327       -0.30257086787571996
4.71E9                   0.7222104860576721       -0.3632923105542123
4.74E9                   0.6897878343879058       -0.42154797585184556
4.77E9                   0.6527069030751467       -0.47694839656189886
4.8E9                    0.611215149115359        -0.5291226403577132
4.83E9                   0.5655894282384992       -0.5777207439178991
4.86E9                   0.5161342838281854       -0.6224160321430197
4.89E9                   0.4631800532568695       -0.6629073077868392
4.92E9                   0.40708079978415235      -0.6989208969825086
4.95E9                   0.3482120794308241       -0.730212536340118
4.98E9                   0.28696855347760286      -0.7565690876796931
5.01E9                   0.22376145860800634      -0.7778100669198457
5.04E9                   0.15901594796654575      -0.7937889743271834
5.07E9                   0.09316831778161312      -0.8043944140942438
5.1E9                    0.026663135382167094     -0.809550992198243
5.13E9                   -0.04004971424831183     -0.8092199825496502
5.16E9                   -0.10651804519055492     -0.8033997526903648
5.19E9                   -0.17229043127323998     -0.7921259416117749
5.22E9                   -0.236919290386943       -0.7754713837324592
5.25E9                   -0.29996397116628587     -0.7535457746716012
5.28E9                   -0.3609938198759423      -0.7264950762336247
5.31E9                   -0.41959120457685356     -0.6945006600141159
5.34E9                   -0.47535447310870094     -0.6577781912193718
5.37E9                   -0.5279008211253993      -0.6165762566557774
5.4E9                    -0.5768690464206419      -0.5711747433328831
5.43E9                   -0.6219221661375869      -0.521882976645711
5.46E9                   -0.6627498741721833      -0.46903762958104694
5.49E9                   -0.6990708170043775      -0.41300041690137657
5.52E9                   -0.7306346675982899      -0.35415559050483214
5.55E9                   -0.7572239785380213      -0.2929072544099265
5.58E9                   -0.7786557974949206      -0.22967651970906303
5.61E9                   -0.7947830301780434      -0.16489852158711696
5.64E9                   -0.8054955381798303      -0.09901932193597088
5.67E9                   -0.8107209614855302      -0.03249272222917426
5.7E9                    -0.8104252577958566      0.03422298771254855
5.73E9                   -0.8046129532636073      0.10066831872573855
5.76E9                   -0.7933271017701239      0.1663858821237328
5.79E9                   -0.7766489525482442      0.23092367301884484
5.82E9                   -0.7546973287813451      0.2938383097151757
5.85E9                   -0.72762772275162        0.35469820203842634
5.88E9                   -0.6956311160562475      0.4130866221663187
5.91E9                   -0.6589325362235641      0.4686046527168678
5.94E9                   -0.6177893636668941      0.5208739883655159
5.97E9                   -0.5724894051924782      0.5695395691759394
6.0E9                    -0.5233487522888949      0.6142720258565041
