% Model:              three_layers reality at 0.1mm.mph
% Version:            COMSOL 5.6.0.280
% Date:               Feb 23 2022, 20:00
% Table:              表格 1 - 全局计算 1
% freq (Hz)              real(emw.S11) (1)        imag(emw.S11) (1)
300000000                0.46573376600754024      -0.7549615682654145
330000000                0.3894048293855196       -0.7936914994503597
360000000                0.3100851185835522       -0.8249799162414404
390000000                0.2284594715053146       -0.8485808392066579
420000000                0.14524245187658522      -0.864315834094049
450000000                0.06116872208051305      -0.8720765225352807
480000000                -0.023015801019070282    -0.8718260775750816
510000000                -0.10656227138983088     -0.8635998267215987
540000000                -0.18872684988034438     -0.847505035433009
570000000                -0.26877830364651073     -0.8237199209155999
600000000                -0.34600527896644995     -0.7924919364761702
630000000                -0.41972323152528856     -0.7541353637466108
660000000                -0.4892809846873659      -0.7090282508285652
690000000                -0.5540668782240151      -0.657608736995411
720000000                -0.6135144669846015      -0.6003708081515342
750000000                -0.6671077289925634      -0.5378595308760281
780000000                -0.7143857435221003      -0.47066581715891104
810000000                -0.7549468036654917      -0.39942077505921947
840000000                -0.7884519314671854      -0.32478970428374687
870000000                -0.814627769172978       -0.2474657979831436
900000000                -0.83326882546603        -0.16816361453421302
930000000                -0.8442390615151254      -0.08761238494093296
960000000                -0.8474728082015766      -0.006549221638895899
990000000                -0.8429750119819414      0.07428770441996142
1020000000               -0.830820813436363       0.15416595227171392
1050000000               -0.8111544689793373      0.23236550011360935
1080000000               -0.7841876323817536      0.30818527155617303
1110000000               -0.750197018839404       0.38094943823038696
1140000000               -0.7095214800764174      0.4500134403966895
1170000000               -0.6625585243054041      0.5147696712429438
1200000000               -0.6097603198605528      0.5746527742420148
1230000000               -0.5516292258038498      0.6291445074854433
1260000000               -0.4887128967661964      0.6777781338215911
1290000000               -0.4215990127635665      0.7201423007181245
1320000000               -0.3509096874737481      0.7558843793494922
1350000000               -0.2772956108663053      0.784713237919513
1380000000               -0.20142998368329135     0.806401430099787
1410000000               -0.12400230224361355     0.8207867853727633
1440000000               -0.0457120526501031      0.8277733938084264
1470000000               0.03273762666673772      0.8273319837154745
1500000000               0.1106462559790522       0.8194996962906714
1530000000               0.18732224169288295      0.8043792668955073
1560000000               0.2620889651199759       0.782137627981626
1590000000               0.3342906794509837       0.7530039536977754
1620000000               0.40329816465027535      0.7172671710472628
1650000000               0.4685140930037733       0.6752729669050885
1680000000               0.5293780616022582       0.6274203243087759
1710000000               0.5853712518123876       0.5741576252028157
1740000000               0.6360206800211942       0.5159783601452295
1770000000               0.680903008476967        0.45341648834646925
1800000000               0.7196478896813204       0.38704149407380417
1830000000               0.7519408232000736       0.31745318722092847
1860000000               0.777525509045783        0.24527629746971225
1890000000               0.7962056878145358       0.17115491222297607
1920000000               0.8078464641448403       0.09574680833180592
1950000000               0.812375116990059        0.019717726502639976
1980000000               0.8097814076855063       -0.05626436591070364
2010000000               0.8001174045030098       -0.13153498365204006
2040000000               0.7834968496728089       -0.20543877347513195
2070000000               0.7600940997324429       -0.2773350903832036
2100000000               0.7301426686698342       -0.34660350814538377
2130000000               0.6939333881982475       -0.4126493030505571
2.16E9                   0.6518121585556778       -0.47490898403845744
2.19E9                   0.604177181057268        -0.5328559635559136
2.22E9                   0.5514754303352751       -0.5860064333282665
2.25E9                   0.4941979613697621       -0.6339253609638051
2.28E9                   0.43287355269628325      -0.6762321844830734
2.31E9                   0.3680603734896192       -0.7126052637576351
2.34E9                   0.3003360739475698       -0.7427837074040653
2.37E9                   0.23028790100537597      -0.7665654057810438
2.4E9                    0.1585054134261629       -0.7838014834599534
2.43E9                   0.08557789276781787      -0.7943895275507225
2.46E9                   0.012096194734575329     -0.7982691733159524
2.49E9                   -0.06134391611147905     -0.7954224285631784
2.52E9                   -0.1341406322924362      -0.785878176900103
2.55E9                   -0.2056890921451231      -0.7697180563135353
2.58E9                   -0.2753879405592737      -0.74708087158187
2.61E9                   -0.3426475886636037      -0.7181641814088369
2.64E9                   -0.40689842691260164     -0.6832231857493657
2.67E9                   -0.46759803625593666     -0.6425677370205171
2.7E9                    -0.5242371539020868      -0.5965583130580934
2.73E9                   -0.5763445261735238      -0.5456015189057453
2.76E9                   -0.6234908846578545      -0.49014540992649763
2.79E9                   -0.6652922511612808      -0.4306747484115217
2.82E9                   -0.7014127084270783      -0.367706216659504
2.85E9                   -0.7315667124601997      -0.30178357768421415
2.88E9                   -0.7555209798351484      -0.23347277241109354
2.91E9                   -0.7730959587331167      -0.16335695072211442
2.94E9                   -0.7841668800419037      -0.09203144516172562
2.97E9                   -0.788664380427093       -0.02009870621698958
3.0E9                    -0.7865746894953787      0.051836773916399896
3.03E9                   -0.7779393759572123      0.1231735162075328
3.06E9                   -0.7628546520837022      0.19331805194370408
3.09E9                   -0.7414702407508296      0.26168982367193644
3.12E9                   -0.7139878147169493      0.32772595138274035
3.15E9                   -0.6806590227981044      0.39088582670001737
3.18E9                   -0.6417831218218659      0.45065550076660515
3.21E9                   -0.5977042361858061      0.5065518351647453
3.24E9                   -0.548808267837144       0.5581263895790419
3.27E9                   -0.4955194788494356      0.6049690231967889
3.3E9                    -0.4382967662566539      0.646711188991726
3.33E9                   -0.3776296459345799      0.6830288992562443
3.36E9                   -0.3140339599996198      0.7136453372363939
3.39E9                   -0.24804732227856263     0.7383330833854229
3.42E9                   -0.18022432042425365     0.7569159166370207
3.45E9                   -0.11113150263605132     0.7692701429725864
3.48E9                   -0.04134219194803155     0.7753253982058244
3.51E9                   0.02856880863392082      0.7750648722376136
3.54E9                   0.09803053415624685      0.7685249114242785
3.57E9                   0.1664810920045648       0.7557939757976413
3.6E9                    0.23337269220613327      0.7370109580120098
3.63E9                   0.29817635249111624      0.7123629069351511
3.66E9                   0.3603861704754627       0.6820822339936542
3.69E9                   0.4195230805913884       0.64644350808819
3.72E9                   0.47513804507695845      0.6057599616764955
3.75E9                   0.5268146604080597       0.5603798382082666
3.78E9                   0.5741711927985763       0.5106827132104169
3.81E9                   0.6168620919944211       0.457075919518399
3.84E9                   0.6545790762884292       0.39999119512415066
3.87E9                   0.6870519293116853       0.339881639217671
3.9E9                    0.714049186464608        0.277218999700445
3.93E9                   0.7353788936863073       0.2124912293252348
3.96E9                   0.7508895778755424       0.14620015930850846
3.99E9                   0.7604714783563549       0.07885908021997967
4.02E9                   0.7640579754473791       0.010990015319378404
4.05E9                   0.7616270507266045       -0.05687947292917638
4.08E9                   0.7532025554842662       -0.12422000353461965
4.11E9                   0.7388550638244009       -0.19050457461800335
4.14E9                   0.7187021387932241       -0.2552130973012676
4.17E9                   0.6929079227568935       -0.31783707562535496
4.2E9                    0.6616820509252332       -0.3778842392930535
4.23E9                   0.6252779569817708       -0.4348829714355451
4.26E9                   0.5839906788260683       -0.4883864305624139
4.29E9                   0.5381542774520774       -0.5379763256762743
4.32E9                   0.4881389598556382       -0.5832663492444091
4.35E9                   0.43434796076625215      -0.623905295275846
4.38E9                   0.37721420286486984      -0.6595798881984091
4.41E9                   0.31719673247297053      -0.6900173296576264
4.44E9                   0.2547769222688256       -0.714987545610636
4.47E9                   0.19045444254527927      -0.7343050951718406
4.5E9                    0.12474302214877149      -0.7478306916332828
4.53E9                   0.058166042538486985     -0.7554722869117562
4.56E9                   -0.008747971663112964    -0.7571856819691642
4.59E9                   -0.07546988864681979     -0.7529746452452177
4.62E9                   -0.14147445054156035     -0.7428905457832107
4.65E9                   -0.20624462506188987     -0.7270315334035664
4.68E9                   -0.26927577210310033     -0.705541319265084
4.71E9                   -0.33007959782102303     -0.6786076194468414
4.74E9                   -0.3881878987000275      -0.6464603166269908
4.77E9                   -0.44315611870652066     -0.6093693708074137
4.8E9                    -0.4945667443877699      -0.5676424773139286
4.83E9                   -0.5420325428942556      -0.5216224423703951
4.86E9                   -0.5851996129071202      -0.4716842364048587
4.89E9                   -0.6237501820497846      -0.4182316987094543
4.92E9                   -0.6574050602843524      -0.36169390077610253
4.95E9                   -0.6859256558978095      -0.3025212192413029
4.98E9                   -0.709115480474663       -0.2411812104830444
5.01E9                   -0.7268211074094664      -0.17815440744738945
5.04E9                   -0.7389325976889671      -0.11393016788686139
5.07E9                   -0.7453834571604272      -0.049002688031559896
5.1E9                    -0.7461502296396703      0.016132743516538817
5.13E9                   -0.7412518470595183      0.08098323441282633
5.16E9                   -0.730748841114437       0.14506156420960364
5.19E9                   -0.7147424696248219      0.2078893357661171
5.22E9                   -0.6933737399328352      0.26900009698678556
5.25E9                   -0.6668222499238595      0.3279424862405688
5.28E9                   -0.6353047455434047      0.38428338123591577
5.31E9                   -0.5990733261951208      0.43761095926451365
5.34E9                   -0.5584133023801706      0.4875375432964546
5.37E9                   -0.5136407874727825      0.5337021308113095
5.4E9                    -0.4651001501735554      0.5757725685550553
5.43E9                   -0.4131614474544858      0.6134474141291734
5.46E9                   -0.3582179072574615      0.6464575805780418
5.49E9                   -0.3006834603370345      0.6745678745669319
5.52E9                   -0.24099025822352838     0.6975785129450722
5.55E9                   -0.17958607705310428     0.7153266503111286
5.58E9                   -0.11693150094225296     0.7276878888995975
5.61E9                   -0.053496801588187815    0.7345776860225993
5.64E9                   0.010241522655798363     0.7359525338914046
5.67E9                   0.07380452210359838      0.7318107705062467
5.7E9                    0.13671479082749888      0.7221928965643568
5.73E9                   0.19850053076091945      0.707181325925367
5.76E9                   0.2586995127417156       0.6868995779014341
5.79E9                   0.31686279233885095      0.6615110028432417
5.82E9                   0.3725581136550652       0.6312171827138917
5.85E9                   0.4253730234684195       0.5962561410510459
5.88E9                   0.4749177790961769       0.5569004371550282
5.91E9                   0.5208281407229052       0.5134551408268326
5.94E9                   0.5627680981779289       0.46625562534480364
5.97E9                   0.6004325208857296       0.4156650988082531
6.0E9                    0.6335496672835096       0.3620718137915834
