% Model:              three_layers reality at 0.1mm.mph
% Version:            COMSOL 5.6.0.280
% Date:               Feb 23 2022, 11:26
% Table:              表格 1 - 全局计算 1
% freq (Hz)              real(emw.S11) (1)        imag(emw.S11) (1)
300000000                0.40490334646695436      -0.77075811470341
330000000                0.3214833575101745       -0.8063834922286598
360000000                0.2351495441197809       -0.8332083160687049
390000000                0.146798821931424        -0.8509908963807891
420000000                0.05735349911784056      -0.8595839093101892
450000000                -0.032250397633477416    -0.8589363329499596
480000000                -0.12107436773472209     -0.8490942067512415
510000000                -0.2081883386098575      -0.8302002407965698
540000000                -0.292681229168038       -0.8024923035858909
570000000                -0.3736711342790335      -0.7663008225390625
600000000                -0.45031506604945903     -0.7220451389353486
630000000                -0.5218181751457454      -0.6702288676742731
660000000                -0.5874423711844453      -0.6114343211953933
690000000                -0.6465142605365855      -0.5463160664073431
720000000                -0.6984323242125592      -0.4755936918685521
750000000                -0.7426732634515913      -0.40004387133666247
780000000                -0.778797449253894       -0.32049181665641496
810000000                -0.8064534205037438      -0.23780222027680864
840000000                -0.8253813863504118      -0.15286979219113894
870000000                -0.8354156990748911      -0.06660950120653024
900000000                -0.836486275850322       0.020053367528977257
930000000                -0.8286189596607809      0.1061932246773669
960000000                -0.8119348220803412      0.19089414490526585
990000000                -0.7866484227859232      0.2732596785287326
1020000000               -0.7530650527027261      0.3524223969325604
1050000000               -0.7115769993105074      0.42755306604145205
1080000000               -0.6626588835724055      0.49786934772010344
1110000000               -0.6068621283503598      0.562643935165052
1140000000               -0.5448086273646958      0.6212120364429198
1170000000               -0.47718369245670855     0.6729781283616013
1200000000               -0.4047283639035656      0.7174219127581016
1230000000               -0.3282311749816417      0.7541034169210841
1260000000               -0.24851946673200453     0.7826671906416894
1290000000               -0.1664503526648373      0.8028455632040297
1320000000               -0.08290143554023875     0.8144609347331312
1350000000               0.001238620444120464     0.8174270874846647
1380000000               0.08507955870856598      0.8117495137005005
1410000000               0.16773893859345732      0.7975247675185182
1440000000               0.24835138306184046      0.774938858874069
1470000000               0.3260775694678856       0.7442647173903936
1500000000               0.40011287136575224      0.7058587637022914
1530000000               0.4696955645576537       0.6601566345036121
1560000000               0.5341145166063974       0.6076681157177097
1590000000               0.5927162857672139       0.5489713455601115
1620000000               0.6449115626333918       0.4847063557809597
1650000000               0.6901808955851347       0.4155680251004863
1680000000               0.7280796494698731       0.3422985236659357
1710000000               0.7582421555003453       0.265679331285862
1740000000               0.7803850192896292       0.1865229152763345
1770000000               0.7943095630323498       0.10566415581149398
1800000000               0.7999033870939218       0.023951607915520243
1830000000               0.7971410456252805       -0.05776131068274429
1860000000               0.7860838402125531       -0.13862511729427746
1890000000               0.7668787449457689       -0.2178029613900001
1920000000               0.7397564855262552       -0.2944791379746617
1950000000               0.705028803963089        -0.3678673392520755
1980000000               0.6630849485996926       -0.4372185736577159
2010000000               0.6143874360111309       -0.5018286907801798
2040000000               0.559467135329251        -0.5610454632155205
2070000000               0.49891772434788373      -0.6142751921082716
2100000000               0.43338955660331635      -0.6609888207829958
2130000000               0.3635829539232612       -0.7007275565961977
2.16E9                   0.29024089363573874      -0.7331080047638532
2.19E9                   0.21414099254800015      -0.757826788540731
2.22E9                   0.1360866160044445       -0.7746645351773699
2.25E9                   0.05689691387662066      -0.7834889117031595
2.28E9                   -0.02260428189665742     -0.7842561048449872
2.31E9                   -0.10160032893885998     -0.777009885805344
2.34E9                   -0.1792932852198245      -0.7618775076924655
2.37E9                   -0.25491320085911423     -0.7390625376986323
2.4E9                    -0.32772344888556726     -0.7088362750103809
2.43E9                   -0.39702193826466115     -0.6715306493787924
2.46E9                   -0.4621404307971475      -0.6275349990869439
2.49E9                   -0.522445399669239       -0.5772967102530489
2.52E9                   -0.577342671931928       -0.5213231989040019
2.55E9                   -0.6262855469371861      -0.46018215894402464
2.58E9                   -0.6687843134289774      -0.39449841623850285
2.61E9                   -0.7044150192329038      -0.3249475518754097
2.64E9                   -0.7328263066542988      -0.2522474371253622
2.67E9                   -0.7537440972199232      -0.17714885875281916
2.7E9                    -0.7669744259662292      -0.10042601059380295
2.73E9                   -0.7724048385828182      -0.022867218126646813
2.76E9                   -0.7700046830940087      0.05473399139027113
2.79E9                   -0.7598245058765509      0.1315874697445711
2.82E9                   -0.7419946663384471      0.20691469996666356
2.85E9                   -0.7167232276572489      0.2799567276719998
2.88E9                   -0.6842931542734608      0.34998175799456516
2.91E9                   -0.6450588389361696      0.41629238579881256
2.94E9                   -0.5994419841794326      0.47823241419784357
2.97E9                   -0.5479268699036198      0.5351932094039321
3.0E9                    -0.4910550470670825      0.5866195378502124
3.03E9                   -0.4294195060707277      0.6320148327309973
3.06E9                   -0.3636583762321595      0.6709458411641385
3.09E9                   -0.29444821950416156     0.7030466091047216
3.12E9                   -0.22249698680046928     0.7280217686422801
3.15E9                   -0.1485367089058025      0.7456491006616688
3.18E9                   -0.07331599534470161     0.755781354687139
3.21E9                   0.002407585730086126     0.7583473160394406
3.24E9                   0.0778751758689536       0.7533521176498644
3.27E9                   0.15233427518043552      0.7408767991099485
3.3E9                    0.22504630710864718      0.7210771185713503
3.33E9                   0.2952940362205913       0.6941816241049104
3.36E9                   0.3623887752433298       0.6604889909778396
3.39E9                   0.4256773133849091       0.6203646315182719
3.42E9                   0.48454849043679005      0.5742365867688578
3.45E9                   0.5384393310705647       0.5225907160777855
3.48E9                   0.5868406431920999       0.4659652140951366
3.51E9                   0.6293019764230178       0.4049445052916849
3.54E9                   0.6654358357879748       0.340152593526993
3.57E9                   0.6949210555038235       0.272245975374588
3.6E9                    0.7175052607493697       0.20190625536266582
3.63E9                   0.7330063803593245       0.12983262244844115
3.66E9                   0.7413132156638697       0.05673435451881628
3.69E9                   0.7423851129633171       -0.016676490162056853
3.72E9                   0.7362508231285727       -0.08969205565029902
3.75E9                   0.7230066596359308       -0.16161523334234085
3.78E9                   0.7028140881180449       -0.23176568859125243
3.81E9                   0.6758968984226549       -0.29948532554912694
3.84E9                   0.6425381205223929       -0.364143195807656
3.87E9                   0.6030768371838804       -0.4251399177233198
3.9E9                    0.5579050058633322       -0.4819117367476713
3.93E9                   0.5074643256767658       -0.5339344004458914
3.96E9                   0.45224308604963287      -0.5807270211758313
3.99E9                   0.39277284139988267      -0.6218560429738821
4.02E9                   0.3296247044045796       -0.6569393274779776
4.05E9                   0.26340505970484324      -0.6856502569905456
4.08E9                   0.1947505682227284       -0.707721657847316
4.11E9                   0.12432243669018438      -0.7229493014405195
4.14E9                   0.05280003500218218      -0.7311947518566033
4.17E9                   -0.019125973256244322    -0.7323873874894149
4.2E9                    -0.09076078069315906     -0.726525506894306
4.23E9                   -0.1614126625738969      -0.7136765118800372
4.26E9                   -0.23040011213052827     -0.6939762235117635
4.29E9                   -0.2970587696151557      -0.6676274186427018
4.32E9                   -0.3607480806207649      -0.6348976756792237
4.35E9                   -0.4208576537380327      -0.5961165973692583
4.38E9                   -0.4768132995416168      -0.5516724496201991
4.41E9                   -0.5280827249750913      -0.5020082319797917
4.44E9                   -0.5741808377332018      -0.4476171862561251
4.47E9                   -0.6146745948422732      -0.38903775626301806
4.5E9                    -0.6491873160893425      -0.32684803049016975
4.53E9                   -0.6774023805166055      -0.26165972438126767
4.56E9                   -0.6990662333568318      -0.19411178416531555
4.59E9                   -0.713990650381999       -0.12486371486529178
4.62E9                   -0.7220542340790349      -0.05458874737261395
4.65E9                   -0.7232031475426548      0.016033040192311138
4.68E9                   -0.7174511214183312      0.08632154516190234
4.71E9                   -0.7048787888538697      0.15560333140440874
4.74E9                   -0.6856324062706142      0.22321814486293512
4.77E9                   -0.6599220019818679      0.2885252357771048
4.8E9                    -0.6280189663990781      0.35090947912932197
4.83E9                   -0.5902530699228983      0.40978727178767366
4.86E9                   -0.5470088819387783      0.46461215384340504
4.89E9                   -0.49872157505394166     0.5148800654390991
4.92E9                   -0.44587213188888764     0.5601341237122227
4.95E9                   -0.38898201796443427     0.5999687984468272
4.98E9                   -0.3286074310230658      0.6340333830204301
5.01E9                   -0.26533327260700335     0.6620346965821159
5.04E9                   -0.1997670031827811      0.6837390068140601
5.07E9                   -0.13253253200728637     0.6989732200143309
5.1E9                    -0.06426425605305167     0.7076254338487927
5.13E9                   0.004398696091826792     0.7096449736303447
5.16E9                   0.07281802493124001      0.7050420235315535
5.19E9                   0.1403616849620061       0.6938869176702057
5.22E9                   0.20640924509386327      0.67630908671638
5.25E9                   0.2703572192891201       0.6524955930204067
5.28E9                   0.33162433058523766      0.6226891636625949
5.31E9                   0.38965659988736817      0.5871856621768616
5.34E9                   0.44393211677407063      0.5463310132639899
5.37E9                   0.49396537207452057      0.5005176742303138
5.4E9                    0.5393110997956955       0.45018079346991313
5.43E9                   0.5795676559441237       0.3957941904515696
5.46E9                   0.614380018937564        0.3378662405701879
5.49E9                   0.6434425111139035       0.276935677232859
5.52E9                   0.6665013138769713       0.21356726065864307
5.55E9                   0.6833567947328124       0.14834722685328858
5.58E9                   0.6938656013837712       0.0818784276010805
5.61E9                   0.6979424218887659       0.014775100703258477
5.64E9                   0.6955612723047797       -0.05234273748039736
5.67E9                   0.6867561634181162       -0.11885521684753822
5.7E9                    0.6716210236945213       -0.18414872465156426
5.73E9                   0.6503088181721477       -0.24762201842662132
5.76E9                   0.6230298908909191       -0.30869214286109525
5.79E9                   0.5900496427417924       -0.3667999928039414
5.82E9                   0.5516857013046392       -0.4214154476125903
5.85E9                   0.5083047233363139       -0.47204209205215747
5.88E9                   0.46031890492417293      -0.5182215937408782
5.91E9                   0.4081821965349093       -0.5595378048752911
5.94E9                   0.3523861692449895       -0.5956206076903668
5.97E9                   0.2934554722583297       -0.6261494599728232
6.0E9                    0.23194285270484177      -0.6508565485142739
