% Model:              three_layers reality at 0.1mm.mph
% Version:            COMSOL 5.6.0.280
% Date:               Feb 23 2022, 11:50
% Table:              表格 1 - 全局计算 1
% freq (Hz)              real(emw.S11) (1)        imag(emw.S11) (1)
300000000                0.4343064310038866       -0.8312296203360585
330000000                0.3429507308938419       -0.8704906526710892
360000000                0.24830994101268988      -0.8998712420656683
390000000                0.15141646377806506      -0.9191138403174195
420000000                0.05332697183530577      -0.9280660277656317
450000000                -0.04488954493387709     -0.9266838927023641
480000000                -0.14216393002424682     -0.9150336806677686
510000000                -0.2374390268123645      -0.8932918322123383
540000000                -0.3296816956247461      -0.8617435047311682
570000000                -0.41789452808506433     -0.8207796639439835
600000000                -0.5011271142815427      -0.7708928286789875
630000000                -0.5784867275039218      -0.712671555932977
660000000                -0.6491483002148155      -0.6467937591833084
690000000                -0.7123635749127797      -0.574018960755979
720000000                -0.7674693244348655      -0.49517958740641954
750000000                -0.8138945483029393      -0.41117142647691846
780000000                -0.851166565104302       -0.32294336741381313
810000000                -0.8789159346016817      -0.23148656030044298
840000000                -0.8968801584329459      -0.13782312816656797
870000000                -0.9049061237618281      -0.04299457342466345
900000000                -0.9029512699501723      0.05194997882587078
930000000                -0.8910834745121925      0.14596555796927843
960000000                -0.8694796704111716      0.23802300375872099
990000000                -0.8384232224791396      0.32712036313835335
1020000000               -0.7983001057100263      0.4122938945210421
1050000000               -0.7495939424502732      0.4926285532965487
1080000000               -0.6928799688817402      0.567267840031616
1110000000               -0.6288180131226292      0.6354229028981369
1140000000               -0.5581445783743627      0.6963807961873688
1170000000               -0.4816641336795151      0.7495118090412537
1200000000               -0.40023972269849245     0.7942757911083467
1230000000               -0.3147830074486342      0.8302274149468398
1260000000               -0.22624386805805097     0.8570203291475832
1290000000               -0.13559968304796027     0.8744101697857153
1320000000               -0.0438444155615974      0.8822564120088381
1350000000               0.04802236895833474      0.8805230572932358
1380000000               0.13900643014209707      0.8692781654094704
1410000000               0.22812960466568644      0.8486922530825206
1440000000               0.3144402668377662       0.8190355936360586
1470000000               0.39702338763257417      0.7806744634439301
1500000000               0.47501008862878413      0.7340663916586136
1530000000               0.5475865950770695       0.6797544794041734
1560000000               0.614002500887882        0.618360863238736
1590000000               0.6735782674029548       0.5505794053556915
1620000000               0.725711887702439        0.47716769945264215
1650000000               0.7698846582925211       0.3989384866321456
1680000000               0.8056660106209184       0.31675057991554295
1710000000               0.8327173655374601       0.2314993991886327
1740000000               0.8507949847386289       0.14410722043100718
1770000000               0.8597518042134897       0.05551324397045289
1800000000               0.8595382455850903       -0.03333641356329212
1830000000               0.8502020121655836       -0.12149870023100323
1860000000               0.8318868873086238       -0.2080434820072377
1890000000               0.8048305631799612       -0.29206317115976893
1920000000               0.7693615383477685       -0.3726820382035353
1950000000               0.7258951323057506       -0.4490651229969119
1980000000               0.6749286737614665       -0.5204266700201035
2010000000               0.61703592643843         -0.5860380251088584
2040000000               0.5528608196253361       -0.6452349465687415
2070000000               0.48311054787857466      -0.6974243027611193
2100000000               0.4085480909395653       -0.7420901493349907
2130000000               0.32998417413102354      -0.7787991979456863
2.16E9                   0.24826863510570654      -0.8072056917060935
2.19E9                   0.16428108294450522      -0.8270556670196392
2.22E9                   0.07892064963042707      -0.8381904678995702
2.25E9                   -0.006905394354962269    -0.8405491481327648
2.28E9                   -0.09229422662848244     -0.8341690578496084
2.31E9                   -0.17636081111949997     -0.8191836219706666
2.34E9                   -0.25825064392973723     -0.7958164619084616
2.37E9                   -0.3371497264544555      -0.7643720367752289
2.4E9                    -0.4122897628979382      -0.7252248033274488
2.43E9                   -0.48294848240778443     -0.6788103182420966
2.46E9                   -0.548447777645828       -0.6256210559057436
2.49E9                   -0.6081537182979637      -0.5662068316411265
2.52E9                   -0.6614810191860402      -0.5011768075386323
2.55E9                   -0.7079015243000599      -0.43119947376864237
2.58E9                   -0.7469542286291706      -0.3569987165745725
2.61E9                   -0.7782543334933825      -0.2793462282239407
2.64E9                   -0.8014999877544027      -0.1990516348211041
2.67E9                   -0.8164765079154966      -0.11695172974516253
2.7E9                    -0.8230584640804889      -0.033899710901321455
2.73E9                   -0.821210138811376       0.04924516476975183
2.76E9                   -0.810984762131616       0.1316273929182891
2.79E9                   -0.7925227791988682      0.2124045085323145
2.82E9                   -0.7660492937720902      0.2907558830966451
2.85E9                   -0.73187076330656        0.36589105219636064
2.88E9                   -0.6903709897839899      0.4370575686756363
2.91E9                   -0.6420064404293709      0.5035483552488694
2.94E9                   -0.5873009340701375      0.5647085161642407
2.97E9                   -0.5268397355944902      0.6199415603068631
3.0E9                    -0.4612631094774618      0.668714986061123
3.03E9                   -0.39125939187640957     0.7105651802367006
3.06E9                   -0.31755764833743855     0.7451015883721417
3.09E9                   -0.24091999053157764     0.772010120658669
3.12E9                   -0.16213362978991894     0.7910557663854126
3.15E9                   -0.08200274789824853     0.8020843991303401
3.18E9                   -0.0013402657895115412   0.8050237646040794
3.21E9                   0.07904041116800187      0.799883651979097
3.24E9                   0.15833359610885156      0.7867552568616514
3.27E9                   0.2357494013858279       0.7658097491872842
3.3E9                    0.31052163079687567      0.7372960617505133
3.33E9                   0.38191541942943064      0.7015379153245878
3.36E9                   0.44923455668840706      0.6589300953912829
3.39E9                   0.5118284234809364       0.6099339952485355
3.42E9                   0.5690984663930155       0.555072442820604
3.45E9                   0.620504120742239        0.49492383637884496
3.48E9                   0.6655680835631949       0.43011562936612346
3.51E9                   0.7038808300631185       0.3613172278256782
3.54E9                   0.7351042680244778       0.2892323942348745
3.57E9                   0.7589744378786794       0.21459128538394687
3.6E9                    0.7753031942345775       0.13814228281104482
3.63E9                   0.7839788457068324       0.06064379478391152
3.66E9                   0.7849657779766933       -0.017143786783534353
3.69E9                   0.778303131805544        -0.09446580412904133
3.72E9                   0.7641026462690473       -0.17058058220436903
3.75E9                   0.742545805901186        -0.24476609785398576
3.78E9                   0.7138804513226387       -0.316325997091327
3.81E9                   0.6784170285124728       -0.38459493217211094
3.84E9                   0.6365246578052229       -0.4489432460586373
3.87E9                   0.5886271874097438       -0.5087810996183401
3.9E9                    0.5351993442630615       -0.5635622035922642
3.93E9                   0.4767630047652057       -0.6127873581805323
3.96E9                   0.4138834967764698       -0.6560079925541332
3.99E9                   0.3471657463555083       -0.692829824654553
4.02E9                   0.27725003419276234      -0.7229166431198908
4.05E9                   0.2048071476886726       -0.7459940838020862
4.08E9                   0.1305327992216272       -0.7618531737915506
4.11E9                   0.05514130118015395      -0.770353374363926
4.14E9                   -0.020641392984014753    -0.7714248768459423
4.17E9                   -0.09608508623522471     -0.7650699775149865
4.2E9                    -0.17046294076369525     -0.7513634530343637
4.23E9                   -0.24305906347602085     -0.7304519490588858
4.26E9                   -0.3131758973479076      -0.7025524605018031
4.29E9                   -0.38014130311604993     -0.6679500123211962
4.32E9                   -0.4433152720805982      -0.6269946460385571
4.35E9                   -0.5020962473830414      -0.580097790738908
4.38E9                   -0.5559270420281437      -0.5277280639435045
4.41E9                   -0.6043003312479615      -0.4704065222449944
4.44E9                   -0.6467636747749308      -0.4087013725039942
4.47E9                   -0.6829240025765394      -0.34322216287543617
4.5E9                    -0.7124514843715238      -0.27461349410009295
4.53E9                   -0.7350827024555628      -0.2035483186364091
4.56E9                   -0.7506230594950435      -0.13072092153327433
4.59E9                   -0.7589483759095212      -0.056839697552709026
4.62E9                   -0.7600056623384641      0.017380150340996763
4.65E9                   -0.7538130868767065      0.09122386876001687
4.68E9                   -0.7404591874398077      0.16398426332247973
4.71E9                   -0.720101398459388       0.23496858557363756
4.74E9                   -0.6929639610424911      0.3035051585171725
4.77E9                   -0.6593352657144909      0.36894972928585185
4.8E9                    -0.6195646446512759      0.43069154538688714
4.83E9                   -0.5740586007287759      0.48815913436109604
4.86E9                   -0.5232764490446794      0.5408257318123466
4.89E9                   -0.46772536100734574     0.5882142640729512
4.92E9                   -0.40795483914772385     0.6299017655730879
4.95E9                   -0.3445507013911459      0.665523108350909
4.98E9                   -0.27812870252158833     0.694773944841732
5.01E9                   -0.20932795534381282     0.7174128110200755
5.04E9                   -0.1388043255937413      0.7332623964247764
5.07E9                   -0.06722395800040282     0.7422100489460632
5.1E9                    0.0047429541857900055    0.7442076314861206
5.13E9                   0.07642811021724932      0.739270869530878
5.16E9                   0.14717077811083712      0.727478311816682
5.19E9                   0.21632328115986896      0.7089699705191133
5.22E9                   0.28325637605588677      0.6839456303864294
5.25E9                   0.34736455835207264      0.6526627510511975
5.28E9                   0.40807125104411157      0.6154338672538584
5.31E9                   0.4648337568944994       0.5726234319953416
5.34E9                   0.5171478247830577       0.5246441301652878
5.37E9                   0.5645517119869808       0.47195277380413314
5.4E9                    0.6066297018654887       0.4150459338784641
5.43E9                   0.6430151221167169       0.35445544928184075
5.46E9                   0.6733929654423432       0.2907438928059004
5.49E9                   0.6975022233249746       0.2244999955059926
5.52E9                   0.7151380081092023       0.1563339654165595
5.55E9                   0.7261534761801468       0.08687260289682548
5.58E9                   0.730461496475553        0.01675411814327096
5.61E9                   0.7280359505501164       -0.0533774075145621
5.64E9                   0.7189125148737183       -0.12287791446483512
5.67E9                   0.7031887718727404       -0.19110953526680224
5.7E9                    0.6810235302730391       -0.2574468926483583
5.73E9                   0.6526353074692364       -0.32128332356827927
5.76E9                   0.6183000221404896       -0.38203682183437937
5.79E9                   0.5783480318674059       -0.4391555428011592
5.82E9                   0.5331606903973665       -0.4921228070974899
5.85E9                   0.48316657331524165      -0.5404616354673784
5.88E9                   0.42883744494860976      -0.5837388992952147
5.91E9                   0.37068395571697316      -0.6215691615101732
5.94E9                   0.3092510088418484       -0.653618225650896
5.97E9                   0.24511273445595805      -0.6796063423581006
6.0E9                    0.17886704682463428      -0.699310973255958
