% Model:              three_layers reality at 0.1mm.mph
% Version:            COMSOL 5.6.0.280
% Date:               Feb 22 2022, 19:41
% Table:              表格 1 - 全局计算 1
% freq (Hz)              real(emw.S11) (1)        imag(emw.S11) (1)
300000000                0.4486380665381777       -0.7269114788160934
330000000                0.3750431643694187       -0.7642994184094797
360000000                0.29855484244157804      -0.7944733680106496
390000000                0.2198459776455568       -0.817201813160459
420000000                0.13961453749241742      -0.8323193027144727
450000000                0.0585750959659066       -0.8397283131470271
480000000                -0.02254913613673644     -0.8394003419425915
510000000                -0.10303393070980604     -0.8313762560871816
540000000                -0.18216138166691193     -0.8157659188471137
570000000                -0.2592269814443274      -0.7927471181531061
600000000                -0.33354642349618757     -0.7625638219161064
630000000                -0.40446210246094466     -0.7255237887560377
660000000                -0.47134927520247266     -0.6819955664963968
690000000                -0.533621841446688       -0.6324049150861593
720000000                -0.5907377020518352      -0.5772306947761774
750000000                -0.6422036537555328      -0.517000264610919
780000000                -0.6875797816238775      -0.4522844404678102
810000000                -0.7264833145685221      -0.383692064991558
840000000                -0.7585919130666059      -0.3118642454618164
870000000                -0.7836463637616993      -0.23746831787771674
900000000                -0.8014526608266928      -0.16119159788102477
930000000                -0.8118834599710401      -0.08373498031714925
960000000                -0.814878896781168       -0.005806450539030568
990000000                -0.8104467674196938      0.07188542965663218
1020000000               -0.7986620757199063      0.14863799882385478
1050000000               -0.7796659568206192      0.2237608735611621
1080000000               -0.7536639934376507      0.29658216746120175
1110000000               -0.7209239465597987      0.3664544933571235
1140000000               -0.6817729277625563      0.4327606941920803
1170000000               -0.6365940454723154      0.4949192508123288
1200000000               -0.5858225621045011      0.5523893190646123
1230000000               -0.5299416033217225      0.6046753526168323
1260000000               -0.4694774643307432      0.6513312726425519
1290000000               -0.4049945614547419      0.6919641503124405
1320000000               -0.3370900797671743      0.7262373733495671
1350000000               -0.2663883699109101      0.7538732730397598
1380000000               -0.19353514862782292     0.7746551937581189
1410000000               -0.11919155852584318     0.7884289925341306
1440000000               -0.04402814328954605     0.7951039616626847
1470000000               0.03128120598142257      0.7946531730211126
1500000000               0.10606527781475723      0.7871132479865879
1530000000               0.17966148684899982      0.7725835622227685
1560000000               0.2514216871459038       0.7512248995721649
1590000000               0.3207178020940232       0.7232575741355741
1620000000               0.38694722292511874      0.6889590441753131
1650000000               0.44953793109723894      0.6486610456503897
1680000000               0.5079533027881208       0.6027462771942498
1710000000               0.5616965576308462       0.5516446717877319
1740000000               0.6103148176609928       0.49582929363242184
1770000000               0.6534027467029667       0.43581190148043253
1800000000               0.6906057450577614       0.3721382220356603
1830000000               0.7216226791951702       0.3053829789015352
1860000000               0.7462081313567197       0.23614472398778183
1890000000               0.764174159648724        0.165040518900202
1920000000               0.7753915651811468       0.09270051380443581
1950000000               0.7797906693826931       0.01976246989449887
1980000000               0.7773616115543928       -0.0531337312819833
2010000000               0.7681541838702597       -0.12535155409277657
2040000000               0.7522772275294834       -0.19626322222490056
2070000000               0.7298976178338962       -0.26525506548955996
2100000000               0.7012388637233258       -0.33173280775698594
2130000000               0.6665793318065149       -0.3951268319476757
2.16E9                   0.6262500648427451       -0.45489748857141044
2.19E9                   0.5806320862242489       -0.5105405304887888
2.22E9                   0.5301529575474113       -0.5615927220483168
2.25E9                   0.4752822092331716       -0.6076375233840231
2.28E9                   0.41652519070918664      -0.6483104262657755
2.31E9                   0.3544150859265909       -0.6833030364029025
2.34E9                   0.2895035321495108       -0.7123646124936599
2.37E9                   0.22235140703303813      -0.7353000259899909
2.4E9                    0.15352220639278347      -0.7519644550425499
2.43E9                   0.08357988866535156      -0.7622571297162347
2.46E9                   0.013090786111692055     -0.7661174982834199
2.49E9                   -0.057373316055328874    -0.7635259308813822
2.52E9                   -0.12723438687613858     -0.7545082660222788
2.55E9                   -0.19591133363967952     -0.7391414646163714
2.58E9                   -0.26282651539702206     -0.7175577102755208
2.61E9                   -0.3274137556909158      -0.6899457534895135
2.64E9                   -0.3891262102183675      -0.656549693767476
2.67E9                   -0.44744322231749295     -0.6176660182958479
2.7E9                    -0.5018759717831113      -0.5736396976517172
2.73E9                   -0.5519720654284138      -0.5248598670011237
2.76E9                   -0.5973193036232327      -0.4717553573869041
2.79E9                   -0.6375488198327943      -0.41479017315154254
2.82E9                   -0.6723377216545335      -0.35445893026284847
2.85E9                   -0.701411302457751       -0.2912822434697228
2.88E9                   -0.7245448527306628      -0.22580204975322024
2.91E9                   -0.7415650771477265      -0.15857686514952649
2.94E9                   -0.7523511122802331      -0.09017698330444612
2.97E9                   -0.7568351360896725      -0.021179634192537697
3.0E9                    -0.755002560914056       0.047835870830414254
3.03E9                   -0.7468918046471563      0.11629297601222224
3.06E9                   -0.7325936390823038      0.18362266495495266
3.09E9                   -0.7122501193568711      0.24926815421497778
3.12E9                   -0.6860531035329609      0.3126894596771137
3.15E9                   -0.6542423761727788      0.37336779998169173
3.18E9                   -0.6171033937917253      0.4308098039989179
3.21E9                   -0.5749646727758263      0.48455149302627076
3.24E9                   -0.528194841420939       0.5341620121254408
3.27E9                   -0.47719937695577497     0.5792470884775645
3.3E9                    -0.4224170463052184      0.6194521961712661
3.33E9                   -0.36431606661803856     0.6544654062533986
3.36E9                   -0.3033899996424146      0.6840198973830436
3.39E9                   -0.24015339439334255     0.7078960964170946
3.42E9                   -0.1751371966719143      0.7259234107179127
3.45E9                   -0.1088839530958449      0.7379815065526315
3.48E9                   -0.04194285185115074     0.744001083204832
3.51E9                   0.0251353384858799       0.7439640933291551
3.54E9                   0.09180334924394043      0.7379033694639305
3.57E9                   0.1575224089604916       0.7259016361722115
3.6E9                    0.22176704350192988      0.7080899161142189
3.63E9                   0.28402956470652363      0.6846453725028194
3.66E9                   0.3438241467634363       0.6557886633813443
3.69E9                   0.4006904140565084       0.6217809088258068
3.72E9                   0.4541964943070747       0.5829203874037875
3.75E9                   0.5039415214023212       0.5395390846983296
3.78E9                   0.5495576025434687       0.4919992181860199
3.81E9                   0.5907112980594701       0.4406898603070502
3.84E9                   0.6271047030829493       0.3860237695081758
3.87E9                   0.6584762647538501       0.3284345069134671
3.9E9                    0.6846015024222386       0.2683738567588058
3.93E9                   0.7052938010652195       0.2063094872825138
3.96E9                   0.7204054051951183       0.14272270635970685
3.99E9                   0.7298286542695497       0.07810611242535621
4.02E9                   0.7334973934493324       0.012960939439525485
4.05E9                   0.7313883989055054       -0.05220605045461666
4.08E9                   0.7235226042467009       -0.11688617817572303
4.11E9                   0.7099659170827644       -0.1805729098283462
4.14E9                   0.6908294658591025       -0.24276623223347404
4.17E9                   0.6662691965617786       -0.3029771593646811
4.2E9                    0.636484821856671        -0.36073218628851744
4.23E9                   0.6017181908325967       -0.415577541988021
4.26E9                   0.5622511832325474       -0.46708314732358186
4.29E9                   0.5184032356736982       -0.5148462408455059
4.32E9                   0.470528585480106        -0.5584946781035829
4.35E9                   0.4190132832086773       -0.5976899306104433
4.38E9                   0.36427199175819674      -0.6321298084396253
4.41E9                   0.30674456890219925      -0.661550912398096
4.44E9                   0.2468924254322513       -0.6857307981499581
4.47E9                   0.1851946611035592       -0.7044898149653767
4.5E9                    0.12214399924001498      -0.7176925717694673
4.53E9                   0.05824256224477242      -0.725248984230022
4.56E9                   -0.006002451113169549    -0.7271148677438986
4.59E9                   -0.07008311310941621     -0.723292059872659
4.62E9                   -0.13349506172087616     -0.7138280792181
4.65E9                   -0.19574167197419926     -0.6988153520069508
4.68E9                   -0.2563380516282626      -0.6783900572739929
4.71E9                   -0.31481483571149627     -0.6527306499412509
4.74E9                   -0.3707217825844311      -0.6220561135079808
4.77E9                   -0.42363119339376926     -0.5866239708916321
4.8E9                    -0.4731411778893314      -0.5467280509318398
4.83E9                   -0.5188787701931511      -0.5026959819368914
4.86E9                   -0.5605028647671849      -0.4548863746147701
4.89E9                   -0.5977069084059762      -0.4036856701123158
4.92E9                   -0.6302212617214492      -0.34950466133511976
4.95E9                   -0.6578151414731773      -0.29277473718042096
4.98E9                   -0.6802980744456826      -0.23394393822590606
5.01E9                   -0.6975208302812757      -0.17347293891832358
5.04E9                   -0.7093758474684333      -0.11183107894496357
5.07E9                   -0.7157972144685302      -0.049492551349834955
5.1E9                    -0.7167603055491729      0.013067182760123634
5.13E9                   -0.712281186144987       0.07537473798778666
5.16E9                   -0.702415885784209       0.1369619502727356
5.19E9                   -0.6872595873775968      0.19736890911998828
5.22E9                   -0.6669457142116739      0.25614696557561906
5.25E9                   -0.6416448379672532      0.3128617650798259
5.28E9                   -0.6115633115100594      0.3670962840108094
5.31E9                   -0.5769415621658726      0.41845378085898494
5.34E9                   -0.5380520510898188      0.4665605421837448
5.37E9                   -0.49519697780859523     0.5110683258270043
5.4E9                    -0.4487058505665055      0.5516564675598218
5.43E9                   -0.39893303578402545     0.5880336910261456
5.46E9                   -0.3462553511166938      0.6199397128039754
5.49E9                   -0.2910697000768348      0.6471467471279018
5.52E9                   -0.23379068725065572     0.6694609894944074
5.55E9                   -0.17484811844757042     0.686724108318822
5.58E9                   -0.11468428522031804     0.6988147154642532
5.61E9                   -0.053750955782508214    0.7056497334910953
5.64E9                   0.007493960834803914     0.7071855396398835
5.67E9                   0.068590050527488        0.703418752028507
5.7E9                    0.1290782379504872       0.6943865398501947
5.73E9                   0.1885046938179551       0.6801663900764556
5.76E9                   0.2464246417425999       0.6608753402414921
5.79E9                   0.3024059300796781       0.6366687657097074
5.82E9                   0.35603230654016865      0.6077388567441758
5.85E9                   0.40690641805194566      0.5743129127135523
5.88E9                   0.45465261568991766      0.5366515234130887
5.91E9                   0.498919650564066        0.49504663268174076
5.94E9                   0.5393833070021217       0.44981942424487276
5.97E9                   0.5757489609251637       0.40131795368640244
6.0E9                    0.6077540014988778       0.34991447005385945
