% Model:              three_layers reality at 0.1mm.mph
% Version:            COMSOL 5.6.0.280
% Date:               Feb 22 2022, 15:21
% Table:              表格 1 - 全局计算 1
% freq (Hz)              real(emw.S11) (1)        imag(emw.S11) (1)
300000000                0.5350988236378139       -0.8360953784349816
330000000                0.4489415001427721       -0.884941407333675
360000000                0.3584184186612014       -0.9249193176470478
390000000                0.26444135353976267      -0.9556483302627223
420000000                0.1679546555856284       -0.9768413502716982
450000000                0.0699255133719289       -0.9883077782596396
480000000                -0.028666017641507047    -0.9899552571834667
510000000                -0.12683709703837495     -0.9817903501095325
540000000                -0.22361217529916486     -0.9639181539393729
570000000                -0.31803294951058975     -0.9365408645638104
600000000                -0.40916808950131234     -0.8999553192493999
630000000                -0.4961226288668657      -0.854549552325603
660000000                -0.5780469205929023      -0.8007984103807086
690000000                -0.6541450631209073      -0.7392582828492602
720000000                -0.7236827098707475      -0.6705610127920987
750000000                -0.7859941827022573      -0.5954070612653856
780000000                -0.8404888188657904      -0.5145580059140005
810000000                -0.886656490198126       -0.4288284610040072
840000000                -0.9240722433297824      -0.3390775115458517
870000000                -0.9524000201615479      -0.24619975845928696
900000000                -0.9713954287444748      -0.15111607463081642
930000000                -0.9809075455496906      -0.05476417400861864
960000000                -0.9808797413891747      0.041910904012704475
990000000                -0.9713495340569303      0.13796629288094628
1020000000               -0.9524474815763458      0.2324706796504208
1050000000               -0.9243951403310146      0.32451347101113853
1080000000               -0.8875021221769359      0.41321365150064615
1110000000               -0.8421622939894299      0.4977282454776646
1140000000               -0.788849171587167       0.5772603007779751
1170000000               -0.7281105677457134      0.651066318508853
1200000000               -0.6605625609469294      0.7184630608793062
1230000000               -0.5868828573049737      0.7788336772063545
1260000000               -0.5078036232392596      0.8316330965089858
1290000000               -0.42410387022207224     0.8763926441917903
1320000000               -0.3366014759818164      0.9127238492606191
1350000000               -0.24614492832464788     0.9403214178011317
1380000000               -0.15360487870065162     0.9589653575832111
1410000000               -0.05986559254743345     0.9685222477478066
1440000000               0.034183617660820786     0.9689456563971048
1470000000               0.1276568925064451       0.9602757174100104
1500000000               0.21968017747446497      0.9426378859922425
1530000000               0.30939934874095043      0.916240900122536
1560000000               0.3959880390011632       0.8813739822541014
1590000000               0.47865509453835514      0.8384033221623458
1620000000               0.5566515996556163       0.7877678879072255
1650000000               0.6292774107757038       0.729974617080674
1680000000               0.695887148295033        0.6655930453696711
1710000000               0.7558956011242022       0.5952494333218409
1740000000               0.8087825054306947       0.5196204557028901
1770000000               0.8540966663381817       0.4394265204010168
1800000000               0.891459398583346        0.35542478590029164
1830000000               0.9205672697560904       0.2684019476600931
1860000000               0.9411941377243083       0.17916686410512844
1890000000               0.953192482048788        0.08854309276854835
1920000000               0.956494038090073        -0.002638594574896008
1950000000               0.9511097518467647       -0.093547652054955
1980000000               0.9371290835757169       -0.18336109463644001
2010000000               0.9147186985853288       -0.2712706766313766
2040000000               0.8841205933204382       -0.3564898765794724
2070000000               0.8456497115115287       -0.438260673713815
2100000000               0.79969110356646         -0.5158601335931684
2130000000               0.7466966622797117       -0.5886068646790944
2.16E9                   0.6871814127300649       -0.6558674574404493
2.19E9                   0.6217192214907205       -0.7170630519044452
2.22E9                   0.550937604379528        -0.7716761455164456
2.25E9                   0.4755110785953132       -0.8192575575978834
2.28E9                   0.3961523577795976       -0.8594330024636229
2.31E9                   0.3136009226816418       -0.8919079950269762
2.34E9                   0.22860947388252573      -0.916469168869817
2.37E9                   0.14193046394854145      -0.9329803404767681
2.4E9                    0.05430631274513811      -0.941373567686063
2.43E9                   -0.03353371651055994     -0.9416384812559024
2.46E9                   -0.12087030683475392     -0.9338149315384066
2.49E9                   -0.2069886944136096      -0.9179923123767288
2.52E9                   -0.2911762636798108      -0.8943147677056946
2.55E9                   -0.372725793299387       -0.8629883418203275
2.58E9                   -0.4509435377367337      -0.8242861270111748
2.61E9                   -0.5251595150611351      -0.7785495731567199
2.64E9                   -0.594737596808716       -0.7261861913341665
2.67E9                   -0.6590841198118156      -0.667664824461042
2.7E9                    -0.7176547254274062      -0.6035096489085459
2.73E9                   -0.7699596388643744      -0.5342936816663172
2.76E9                   -0.815567732311979       -0.46063218566639813
2.79E9                   -0.8541096662144979      -0.3831761198311838
2.82E9                   -0.8852803062544923      -0.3026056606860422
2.85E9                   -0.9088405292924208      -0.2196237807332857
2.88E9                   -0.9246184740411698      -0.13494986603687234
2.91E9                   -0.9325102590195092      -0.049313367047182845
2.94E9                   -0.9324801738753324      0.036552508747645575
2.97E9                   -0.9245603441621211      0.12191704096181405
3.0E9                    -0.9088498697027969      0.2060581461126288
3.03E9                   -0.8855134401036605      0.2882683952456838
3.06E9                   -0.8547794361897895      0.3678608576569474
3.09E9                   -0.8169375321928065      0.44417472740423336
3.12E9                   -0.7723358197281774      0.516580690004482
3.15E9                   -0.7213774803387459      0.5844859893675988
3.18E9                   -0.6645170379048662      0.647339159487364
3.21E9                   -0.6022562249051268      0.7046343909619402
3.24E9                   -0.5351394967700059      0.7559155082997667
3.27E9                   -0.46374922623364745     0.8007795388854775
3.3E9                    -0.38870060540870305     0.8388798569228992
3.33E9                   -0.31063627807000577     0.8699288848476585
3.36E9                   -0.23022072072359184     0.893700329588652
3.39E9                   -0.148134390054477       0.9100309223691723
3.42E9                   -0.06506765895429467     0.9188216194339232
3.45E9                   0.018285425077421102     0.9200382098210789
3.48E9                   0.10123350573968432      0.9137112684587788
3.51E9                   0.18309432794276628      0.8999353928468432
3.54E9                   0.26320108170399853      0.8788676736494451
3.57E9                   0.3409085417302775       0.8507253762938936
3.6E9                    0.41559884651267986      0.8157828513620768
3.63E9                   0.48668675985764165      0.7743677406998817
3.66E9                   0.5536242770581116       0.7268565945175349
3.69E9                   0.6159044737725647       0.6736700533023711
3.72E9                   0.6730645414887996       0.6152677718033375
3.75E9                   0.7246880013168714       0.5521432722792015
3.78E9                   0.7704061367062025       0.48481891481264283
3.81E9                   0.809898739599046        0.4138411642854909
3.84E9                   0.8428943268486911       0.339776308158576
3.87E9                   0.8691700471058941       0.26320672209092105
3.9E9                    0.8885515402046498       0.18472768429433525
3.93E9                   0.9009130024623233       0.10494461571546004
3.96E9                   0.9061776340625759       0.024470505877274226
3.99E9                   0.9043185077294436       -0.056076783024679715
4.02E9                   0.8953597386734377       -0.13607762789227737
4.05E9                   0.8793777046260122       -0.21491437161600732
4.08E9                   0.8565020019837353       -0.29197571821524565
4.11E9                   0.8269158431783353       -0.36666169828944173
4.14E9                   0.7908556863215814       -0.4383889932736798
4.17E9                   0.7486100079842228       -0.506596354739912
4.2E9                    0.7005172474627721       -0.5707498659161324
4.23E9                   0.6469630379807673       -0.6303478513142249
4.26E9                   0.5883768825379202       -0.6849253222709866
4.29E9                   0.525228429191156        -0.734057925984554
4.32E9                   0.4580234640602949       -0.7773654229195623
4.35E9                   0.3872996891474733       -0.8145147419917264
4.38E9                   0.31362230530975116      -0.8452226562771318
4.41E9                   0.23757939257337635      -0.8692580945593402
4.44E9                   0.1597770750109726       -0.8864440706664617
4.47E9                   0.08083447210721406      -0.896659185843734
4.5E9                    0.0013784645333529966    -0.8998386465936243
4.53E9                   -0.07796166924324446     -0.8959747429622145
4.56E9                   -0.1565596646345142      -0.8851167481251093
4.59E9                   -0.2337976342921013      -0.8673702259514706
4.62E9                   -0.3090712829491863      -0.8428957650223889
4.65E9                   -0.38179488456725086     -0.8119071900125482
4.68E9                   -0.4514059592571485      -0.7746693267359893
4.71E9                   -0.5173696252834862      -0.7314954065552635
4.74E9                   -0.5791826402886671      -0.6827441828256708
4.77E9                   -0.636377171146154       -0.6288167976996911
4.8E9                    -0.6885243311734013      -0.5701533932694346
4.83E9                   -0.7352374940517635      -0.5072294248826449
4.86E9                   -0.776175345645715       -0.4405516232148857
4.89E9                   -0.8110445862634281      -0.37065357258409865
4.92E9                   -0.8396021655150238      -0.2980909203559442
4.95E9                   -0.8616569308231874      -0.22343629191744122
4.98E9                   -0.877070600518843       -0.1472740406638874
5.01E9                   -0.8857580270809191      -0.07019499909903917
5.04E9                   -0.8876867850789296      0.007208594578495914
5.07E9                   -0.8828761879007371      0.08434784531392069
5.1E9                    -0.8713958906080675      0.1606415352468385
5.13E9                   -0.8533642548406963      0.2355200360177718
5.16E9                   -0.8289466218343808      0.3084288785667051
5.19E9                   -0.7983535622667199      0.3788321177020932
5.22E9                   -0.7618390702267112      0.44621562968809125
5.25E9                   -0.7196985855165272      0.5100904164314108
5.28E9                   -0.6722667059192476      0.5699958838326816
5.31E9                   -0.6199145050368956      0.6255029650411301
5.34E9                   -0.5630464775292515      0.6762169220543476
5.37E9                   -0.5020972386465353      0.7217797013846696
5.4E9                    -0.4375281572763287      0.761871819234877
5.43E9                   -0.3698240794717067      0.7962138599376414
5.46E9                   -0.29949021828795097     0.8245677410496596
5.49E9                   -0.22704918356715975     0.8467379067084148
5.52E9                   -0.15303804056002904     0.862572562754002
5.55E9                   -0.07800524219241059     0.8719649855825445
5.58E9                   -0.002507282073373496    0.874854847762875
5.61E9                   0.07289504183025085      0.871229427534288
5.64E9                   0.1476407898105716       0.8611245201777896
5.67E9                   0.2211734147782446       0.8446248574588904
5.7E9                    0.2929455206449511       0.8218638758786283
5.73E9                   0.36242362742474055      0.7930227575842018
5.76E9                   0.4290927099294306       0.7583287841295685
5.79E9                   0.49246033308959697      0.7180531543593016
5.82E9                   0.5520603213456655       0.6725084747200004
5.85E9                   0.6074560236088659       0.6220461041369757
5.88E9                   0.658243310793954        0.5670534405853155
5.91E9                   0.7040534395985905       0.5079511236947021
5.94E9                   0.7445558480698495       0.4451900511855474
5.97E9                   0.7794608583257766       0.379248091688126
6.0E9                    0.808522189912739        0.310626412886702
