% Model:              three_layers reality at 0.1mm.mph
% Version:            COMSOL 5.6.0.280
% Date:               Feb 23 2022, 16:01
% Table:              表格 1 - 全局计算 1
% freq (Hz)              real(emw.S11) (1)        imag(emw.S11) (1)
300000000                0.5383277236146505       -0.7275275680413552
330000000                0.4696326186762422       -0.7720185033198212
360000000                0.39739760833949056      -0.8101703063559471
390000000                0.32218431089992894      -0.8416925562518215
420000000                0.24458284500809793      -0.8663459069395428
450000000                0.16520605423233176      -0.8839445393523091
480000000                0.08468388634285962      -0.8943581252815366
510000000                0.0036578263861128946    -0.8975133017667158
540000000                -0.07722465707687808     -0.893394650293693
570000000                -0.1573156605585389      -0.8820451743269642
600000000                -0.23597237671537885     -0.8635662691809366
630000000                -0.3125625813749423      -0.8381171804149949
660000000                -0.38647004277326497     -0.8059139500028583
690000000                -0.4570998125028607      -0.7672278536007683
720000000                -0.5238833550037784      -0.7223833366214801
750000000                -0.5862834698848534      -0.6717554618804847
780000000                -0.6437989608483532      -0.6157668868278585
810000000                -0.6959690054685282      -0.5548843936700504
840000000                -0.7423771812816482      -0.48961500124796686
870000000                -0.7826551062452328      -0.4205016925439178
900000000                -0.8164856544931084      -0.34811879705729015
930000000                -0.8436057126450209      -0.27306707149499
960000000                -0.8638084462893536      -0.1959685267066431
990000000                -0.8769450517420385      -0.11746105210194623
1020000000               -0.8829259738678099      -0.03819289183953212
1050000000               -0.8817215770427057      0.0411829712485226
1080000000               -0.8733622626588373      0.12001446613941258
1110000000               -0.8579380333006403      0.19765606094760121
1140000000               -0.8355975102336969      0.2734743095011111
1170000000               -0.8065464173949058      0.34685326102199426
1200000000               -0.7710455512693639      0.4171996790400483
1230000000               -0.7294082619380968      0.4839480183783721
1260000000               -0.6819974759355308      0.546565112846987
1290000000               -0.6292222964359406      0.6045545303278046
1320000000               -0.5715342204086474      0.6574605568743312
1350000000               -0.5094230159433893      0.7048717764299909
1380000000               -0.44341230555826316     0.7464242184100364
1410000000               -0.3740549034778418      0.7818040508268123
1440000000               -0.3019279558829176      0.8107498025371825
1470000000               -0.22762793385857397     0.8330541036750608
1500000000               -0.15176552829923118     0.8485649390124617
1530000000               -0.07496049552728028     0.8571864141000749
1560000000               0.0021634994836023935    0.8588790391742243
1590000000               0.07898399690100444      0.8536595402546112
1620000000               0.15488477012161841      0.8416002111226772
1650000000               0.22926072811272624      0.8228278235098178
1680000000               0.3015226548582886       0.7975221160603607
1710000000               0.3711017520612252       0.7659138853630273
1740000000               0.43745395444481905      0.7282827046216349
1770000000               0.5000639905196262       0.6849542972676249
1800000000               0.5584491647342553       0.6362975943092669
1830000000               0.6121628405171293       0.5827215050537926
1860000000               0.6607976066712763       0.5246714315710224
1890000000               0.7039881127352317       0.4626255575852689
1920000000               0.7414135619684163       0.39709094239996445
1950000000               0.7727998533431472       0.3285994503945239
1980000000               0.7979213668419405       0.2577035459527683
2010000000               0.8166023890442841       0.18497198285803518
2040000000               0.8287181786402162       0.11098541577317148
2070000000               0.834195673994941        0.036331959180811293
2100000000               0.8330138467197454       -0.03839728410043098
2130000000               0.8252037056356131       -0.11261270760172143
2.16E9                   0.810847952826737        -0.18573068800025716
2.19E9                   0.7900802851494334       -0.25717806924247805
2.22E9                   0.7630843178226222       -0.3263966411096347
2.25E9                   0.7300920814257907       -0.3928475979966643
2.28E9                   0.691382019174084        -0.45601592552865555
2.31E9                   0.647276414133836        -0.5154145912820048
2.34E9                   0.5981382473300901       -0.5705883322002657
2.37E9                   0.5443676461149739       -0.6211168090854828
2.4E9                    0.48639825918906543      -0.6666170303222622
2.43E9                   0.42469392245348775      -0.7067452306422555
2.46E9                   0.3597457397867363       -0.7411986346692832
2.49E9                   0.29206932545475156      -0.7697174929800785
2.52E9                   0.22220175366336203      -0.7920874458872569
2.55E9                   0.15069789256957178      -0.8081419282080216
2.58E9                   0.07812610319106952      -0.8177642301552546
2.61E9                   0.00506350368124835      -0.820888961283904
2.64E9                   -0.06790895731927016     -0.8175028516981752
2.67E9                   -0.14021144165036345     -0.8076449417646187
2.7E9                    -0.2112700841526448      -0.791406243088034
2.73E9                   -0.28052173793303087     -0.7689289381300313
2.76E9                   -0.3474185855225474      -0.7404051599732976
2.79E9                   -0.41143260123793307     -0.706075374354881
2.82E9                   -0.47205984483718266     -0.6662263764002411
2.85E9                   -0.5288245603347033      -0.6211889121667342
2.88E9                   -0.5812830493099349      -0.5713349370776125
2.91E9                   -0.6290272855879586      -0.5170745273757558
2.94E9                   -0.6716882377074453      -0.45885246550873626
2.97E9                   -0.7089388665877362      -0.3971445251778731
3.0E9                    -0.7404967679639449      -0.3324534863434677
3.03E9                   -0.7661264321724574      -0.26530491461620076
3.06E9                   -0.7856410976540366      -0.19624274301709496
3.09E9                   -0.7989041788407598      -0.12582469704987567
3.12E9                   -0.8058302538307057      -0.054617606327152436
3.15E9                   -0.8063856023335418      0.0168073525052307
3.18E9                   -0.8005882895311397      0.08787943607094004
3.21E9                   -0.788507796652545       0.1580330923488219
3.24E9                   -0.7702642039680465      0.22671265196941476
3.27E9                   -0.7460269364114311      0.2933769094583456
3.3E9                    -0.7160130860636846      0.3575035530645089
3.33E9                   -0.6804853292556446      0.4185934037294716
3.36E9                   -0.6397494591461879      0.47617442583941205
3.39E9                   -0.594151557595222       0.5298054741305093
3.42E9                   -0.5440748330639557      0.5790797429053008
3.45E9                   -0.48993615464074614     0.6236278852181919
3.48E9                   -0.4321823161249023      0.6631207715987033
3.51E9                   -0.3712860686798731      0.6972718603460316
3.54E9                   -0.30774196560297656     0.7258391552434131
3.57E9                   -0.24206206769724334     0.7486267321143054
3.6E9                    -0.17477156178750733     0.7654858231572895
3.63E9                   -0.10640434689491124     0.7763154571904387
3.66E9                   -0.037498641873867915    0.7810626637350927
3.69E9                   0.03140733509431257      0.7797222580581796
3.72E9                   0.09977957027964024      0.7723362319637816
3.75E9                   0.16709230313067566      0.7589927810229997
3.78E9                   0.23283188888888162      0.7398250035734687
3.81E9                   0.29650045222152777      0.7150093104819307
3.84E9                   0.35761931921067486      0.6847635866543584
3.87E9                   0.41573222683411637      0.6493451436650054
3.9E9                    0.47040832076445743      0.6090484956838318
3.93E9                   0.5212449598761243       0.5642029778689805
3.96E9                   0.567870345685502        0.5151702103213508
3.99E9                   0.6099459858247038       0.4623413965697754
4.02E9                   0.6471689846651689       0.4061344387470522
4.05E9                   0.6792741369123263       0.3469908547105556
4.08E9                   0.7060357869688201       0.2853724945646031
4.11E9                   0.7272694122579481       0.22175807095821629
4.14E9                   0.7428328930267796       0.15663953425759755
4.17E9                   0.7526274425162381       0.09051833546674704
4.2E9                    0.756598185825655        0.023901624823560244
4.23E9                   0.7547343896517966       -0.04270156805972547
4.26E9                   0.7470693551913432       -0.1087841336535212
4.29E9                   0.7336799914127341       -0.17384463217324328
4.32E9                   0.7146860856796007       -0.23739097273780807
4.35E9                   0.6902492848935584       -0.29894400714938535
4.38E9                   0.6605717952393996       -0.35804102524043446
4.41E9                   0.6258948045612641       -0.41423913700907655
4.44E9                   0.5864966298261568       -0.4671185229466921
4.47E9                   0.5426905934431719       -0.5162855297143782
4.5E9                    0.49482263582312425      -0.5613755851968057
4.53E9                   0.4432686766102052       -0.602055905525393
4.56E9                   0.38843174248419426      -0.638027967339634
4.59E9                   0.3307388845741226       -0.669029721128041
4.62E9                   0.2706379125623521       -0.6948375258250306
4.65E9                   0.20859397477578093      -0.7152677903728277
4.68E9                   0.1450860132607968       -0.730178313761733
4.71E9                   0.08060312012820514      -0.7394693196121378
4.74E9                   0.015640817085308        -0.7430841832333646
4.77E9                   -0.0493027236735685      -0.7410098474588169
4.8E9                    -0.11373050014395468     -0.7332769192800694
4.83E9                   -0.17715052237397552     -0.719959434619791
4.86E9                   -0.23907964798953885     -0.7011742764338019
4.89E9                   -0.29904737498239575     -0.6770802337948367
4.92E9                   -0.35659954759135426     -0.6478766970183839
4.95E9                   -0.4113019270491644      -0.6138019949589215
4.98E9                   -0.4627435798977099      -0.575131392975399
5.01E9                   -0.5105400424317492      -0.5321747813960236
5.04E9                   -0.5543362298451531      -0.4852740924095641
5.07E9                   -0.5938090710206738      -0.43480048659434756
5.1E9                    -0.6286698622430175      -0.38115134767350345
5.13E9                   -0.6586663421479484      -0.32474711588705585
5.16E9                   -0.6835844928134063      -0.2660279788303434
5.19E9                   -0.7032500663944561      -0.20545042830117832
5.22E9                   -0.7175298249406546      -0.14348368788724822
5.25E9                   -0.7263324684957194      -0.08060602236543796
5.28E9                   -0.7296092206652984      -0.017300955173930734
5.31E9                   -0.7273540465612256      0.04594656213773413
5.34E9                   -0.7196034945504559      0.10865397302192872
5.37E9                   -0.7064361739855552      0.1703448764900811
5.4E9                    -0.6879718973073459      0.23055268195837775
5.43E9                   -0.6643705207685991      0.2888241328237708
5.46E9                   -0.6358305131015413      0.34472268885928053
5.49E9                   -0.6025872699405229      0.397831765773364
5.52E9                   -0.564911179455921       0.44775782973370576
5.55E9                   -0.5231054360328217      0.49413333732506737
5.58E9                   -0.47750359622946176     0.5366195004728577
5.61E9                   -0.42846687496871694     0.5749088447740794
5.64E9                   -0.37638118938984955     0.608727520766132
5.67E9                   -0.32165397190600875     0.6378373233605173
5.7E9                    -0.2647107907644532      0.6620373773733887
5.73E9                   -0.2059918320295452      0.6811654585316713
5.76E9                   -0.14594830580044535     0.6950989388980836
5.79E9                   -0.08503883671866107     0.7037553682804503
5.82E9                   -0.02372588387439034     0.7070927205478299
5.85E9                   0.03752778593127264      0.7051093386875797
5.88E9                   0.09826256521390953      0.6978436039899049
5.91E9                   0.15802541324885003      0.6853733391509377
5.94E9                   0.21637319888774426      0.6678149414811112
5.97E9                   0.2728759619173637       0.6453222368664937
6.0E9                    0.32712006450104525      0.6180850483732026
