% Model:              three_layers reality at 0.1mm.mph
% Version:            COMSOL 5.6.0.280
% Date:               Mar 2 2022, 14:20
% Table:              表格 1 - 全局计算 1
% freq (Hz)              real(emw.S11) (1)        imag(emw.S11) (1)
300000000                0.38581752693671734      -0.8022855825694652
330000000                0.29671437371635284      -0.8361460202710508
360000000                0.20493215159612         -0.8604010933511627
390000000                0.11146181460818633      -0.8748384451488134
420000000                0.017319317460507123     -0.879350638806807
450000000                -0.07646820201686673     -0.8739377652865689
480000000                -0.16887569384484583     -0.8587083123468102
510000000                -0.258892988841835       -0.8338784499984077
540000000                -0.34553710016979783     -0.799769845657402
570000000                -0.4278639758895095      -0.7568061038071471
600000000                -0.5049796208786702      -0.7055079195818035
630000000                -0.5760504953485492      -0.6464870375656172
660000000                -0.6403130947339642      -0.5804391123434886
690000000                -0.6970826173481955      -0.5081355751722197
720000000                -0.7457606331101915      -0.4304146188205725
750000000                -0.7858416754719615      -0.34817142065843
780000000                -0.8169186900704171      -0.26234773100411485
810000000                -0.8386872864410186      -0.17392095979814937
840000000                -0.850948753296637       -0.08389289901009281
870000000                -0.8536118126739297      0.006721778764657631
900000000                -0.8466931036812038      0.09690710407247444
930000000                -0.8303164020719458      0.18565733571171747
960000000                -0.8047105973218663      0.2719882887705648
990000000                -0.7702064639076136      0.35494833128382336
1020000000               -0.7272322779087933      0.4336289211099666
1050000000               -0.6763083435843456      0.5071745621792314
1080000000               -0.6180405071140161      0.5747920681369619
1110000000               -0.5531127459028554      0.6357590317919501
1140000000               -0.48227893181343184     0.6894314100504595
1170000000               -0.40635387504684656     0.7352501464119509
1200000000               -0.32620376224712627     0.7727467661183267
1230000000               -0.2427361076596781      0.8015478925765118
1260000000               -0.15688933970097185     0.8213786475698662
1290000000               -0.06962214732641368     0.8320649116828426
1320000000               0.018097289169116414     0.8335344352672971
1350000000               0.10530205932420406      0.8258168037986645
1380000000               0.19103715479445127      0.8090422746471312
1410000000               0.2743698558621594       0.7834395147877489
1440000000               0.35439976045803423      0.7493322807902651
1470000000               0.4302683504196967       0.7071350933785447
1500000000               0.5011679969861682       0.6573479689007359
1530000000               0.5663503158295067       0.6005502790514837
1560000000               0.6251337907855845       0.537393818185687
1590000000               0.6769105950462866       0.46859516445957405
1620000000               0.7211525486106464       0.3949274267537064
1650000000               0.7574161611621929       0.3172114740530432
1680000000               0.7853467201985809       0.2363067474693161
1710000000               0.8046813950872949       0.1531017574675629
1740000000               0.8152513385562422       0.06850437027192686
1770000000               0.8169827780819798       -0.016568012472335254
1800000000               0.809897100425906        -0.10119827752293714
1830000000               0.7941099432992971       -0.1844793262164753
1860000000               0.7698293186361327       -0.26552360506463535
1890000000               0.7373528021944993       -0.34347234757289724
1920000000               0.697063834011427        -0.4175044401168787
1950000000               0.6494271833172466       -0.48684483289845404
1980000000               0.5949836393688497       -0.5507724272742626
2010000000               0.534343995344436        -0.6086273838463581
2040000000               0.46818239405300394      -0.6598178120888092
2070000000               0.3972290989410834       -0.7038258215441855
2100000000               0.3222627368859248       -0.7402129350018596
2130000000               0.24410202433410275      -0.768624879525309
2.16E9                   0.16359692960819122      -0.7887957679484648
2.19E9                   0.0816191431362599       -0.8005516353512392
2.22E9                   -9.483515871794524E-4    -0.8038131630982568
2.25E9                   -0.0832228168711815      -0.7985971723144432
2.28E9                   -0.16433440816775402     -0.7850161245833077
2.31E9                   -0.24343934278342322     -0.76327461728928
2.34E9                   -0.319732065123757       -0.7336621162561842
2.37E9                   -0.3924541072760024      -0.6965423572729248
2.4E9                    -0.46089774059927624     -0.6523417726252511
2.43E9                   -0.5244047056030343      -0.6015406014879305
2.46E9                   -0.5823632107188466      -0.5446693324257746
2.49E9                   -0.6342075218800867      -0.4823098967035456
2.52E9                   -0.6794225596564214      -0.4150980910483602
2.55E9                   -0.7175526360777431      -0.3437234231744499
2.58E9                   -0.7482114794240611      -0.26892463301402897
2.61E9                   -0.771090904943314       -0.19148143181312868
2.64E9                   -0.7859668464688078      -0.11220406841791218
2.67E9                   -0.7927026814086716      -0.03192221858375907
2.7E9                    -0.7912503605835839      0.04852589464954849
2.73E9                   -0.7816499284494223      0.12830377210322638
2.76E9                   -0.7640278749532177      0.20658622891522557
2.79E9                   -0.7385945890097111      0.28256835001589803
2.82E9                   -0.705641058770201       0.35547387148021176
2.85E9                   -0.6655348928988291      0.4245630245589876
2.88E9                   -0.6187157051887131      0.48913984856299175
2.91E9                   -0.5656898959677646      0.5485589542989213
2.94E9                   -0.5070248663667093      0.6022317041781442
2.97E9                   -0.44334270909335594     0.6496317672137508
3.0E9                    -0.37531342823063246     0.6903000051990043
3.03E9                   -0.3036477491161977      0.7238486486180977
3.06E9                   -0.22908958677055563     0.7499647260823915
3.09E9                   -0.15240824708415845     0.7684127184616041
3.12E9                   -0.07439043887198142     0.7790364176169157
3.15E9                   0.004167823391470549     0.7817599791683449
3.18E9                   0.0824693469182387       0.7765881681771334
3.21E9                   0.15972384149003266      0.7636058051991554
3.24E9                   0.23515588176996793      0.7429764269109431
3.27E9                   0.30801268388272673      0.7149401797935915
3.3E9                    0.3775716335043502       0.6798109669897475
3.33E9                   0.443147504806046        0.637972867947266
3.36E9                   0.5040993083838808       0.5898758491605548
3.39E9                   0.5598367010576144       0.5360307841323403
3.42E9                   0.6098258815381628       0.4770038039722847
3.45E9                   0.6535948848678352       0.4134100091579851
3.48E9                   0.6907381780536881       0.3459065897700037
3.51E9                   0.7209204535025752       0.2751854264892777
3.54E9                   0.7438795203181034       0.20196527638590742
3.57E9                   0.7594282105241135       0.12698368147698777
3.6E9                    0.7674552493222404       0.05098876753582268
3.63E9                   0.7679250831381315       -0.0252688821553275
3.66E9                   0.7608767095085821       -0.1010440937748892
3.69E9                   0.746421599914838        -0.17560454464374586
3.72E9                   0.7247408436858938       -0.24823764510911067
3.75E9                   0.696081666725641        -0.3182567639875084
3.78E9                   0.6607534962124011       -0.38500674203154955
3.81E9                   0.6191237537876912       -0.44786868493470644
3.84E9                   0.5716135600436728       -0.5062640857424647
3.87E9                   0.5186935093491937       -0.5596583949564485
3.9E9                    0.46087961328121135      -0.6075642205585507
3.93E9                   0.3987294128759622       -0.6495443735213162
3.96E9                   0.3328381451108735       -0.6852149522532145
3.99E9                   0.26383475393573036      -0.7142485746446559
4.02E9                   0.19237749711255586      -0.7363777378808455
4.05E9                   0.11914893443065751      -0.7513981530915931
4.08E9                   0.04485018070454921      -0.7591718059977659
4.11E9                   -0.02980556391400331     -0.7596294627456396
4.14E9                   -0.10410007216975448     -0.7527723747862519
4.17E9                   -0.17731751932044643     -0.7386730198937872
4.2E9                    -0.24875203669627055     -0.7174748192691167
4.23E9                   -0.3177151614554319      -0.6893908644733435
4.26E9                   -0.3835430088308647      -0.654701752012157
4.29E9                   -0.44560305990329535     -0.613752648963206
4.32E9                   -0.5033005163443081      -0.5669497035838883
4.35E9                   -0.556084208997028       -0.5147558834957263
4.38E9                   -0.6034520553380583      -0.45768628791346083
4.41E9                   -0.644956047130965       -0.3963029545078028
4.44E9                   -0.6802067255258564      -0.331209173870066
4.47E9                   -0.7088770785628724      -0.2630433351252895
4.5E9                    -0.7307057839212422      -0.19247234938638746
4.53E9                   -0.7454997212883132      -0.12018472578115197
4.56E9                   -0.7531356934743547      -0.0468834009397705
4.59E9                   -0.7535613209549941      0.02672155813475226
4.62E9                   -0.7467951072656789      0.09992024984550531
4.65E9                   -0.7329257075891293      0.17201011063565735
4.68E9                   -0.7121104627342103      0.24230286405656615
4.71E9                   -0.6845732770347637      0.31013117927821754
4.74E9                   -0.6506019149795188      0.3748550085785636
4.77E9                   -0.6105447676772112      0.4358675999660161
4.8E9                    -0.5648071057571499      0.49260118611740716
4.83E9                   -0.5138468057836939      0.5445323307798426
4.86E9                   -0.45816952806140665     0.5911868763167586
4.89E9                   -0.39832334193724517     0.6321443970986318
4.92E9                   -0.33489283623338606     0.6670420395854578
4.95E9                   -0.2684928048380143      0.6955776315563489
4.98E9                   -0.19976164576376246     0.7175119717056055
5.01E9                   -0.1293546435044137      0.7326702612010572
5.04E9                   -0.057937310890934415    0.7409427009411738
5.07E9                   0.013821056313862636     0.7422843397516744
5.1E9                    0.08525350996234948      0.7367143050834382
5.13E9                   0.15570123352455723      0.7243145639898027
5.16E9                   0.2245190192920127       0.7052283379558709
5.19E9                   0.29108052524392714      0.6796582326870012
5.22E9                   0.354783397518764        0.6478640635815659
5.25E9                   0.41505429126770593      0.6101602941339047
5.28E9                   0.47135373817832477      0.5669129913009011
5.31E9                   0.5231807347223301       0.5185362499461915
5.34E9                   0.5700769010005725       0.46548812615479207
5.37E9                   0.6116300997957094       0.40826620254448437
5.4E9                    0.6474774890731294       0.34740294687112994
5.43E9                   0.6773080680570573       0.2834610029675864
5.46E9                   0.7008648298068452       0.21702848522586096
5.49E9                   0.7179466352854675       0.14871426630738524
5.52E9                   0.7284098813745722       0.0791431834654987
5.55E9                   0.7321699679203548       0.008951059611616059
5.58E9                   0.7292024983861982       -0.061220555332191035
5.61E9                   0.7195440919754397       -0.13072997509714887
5.64E9                   0.7032926535570798       -0.19894128666054992
5.67E9                   0.6806069497430397       -0.26523048867526944
5.7E9                    0.6517053806651654       -0.32899169587038124
5.73E9                   0.6168639155614923       -0.38964319975008876
5.76E9                   0.5764132588969458       -0.4466331779150514
5.79E9                   0.5307353982845296       -0.4994449041177664
5.82E9                   0.4802597183804633       -0.5476014106493672
5.85E9                   0.4254588300280272       -0.5906696501930366
5.88E9                   0.3668441812089238       -0.6282642516823649
5.91E9                   0.3049614311017253       -0.6600509472494309
5.94E9                   0.24038552161487312      -0.6857496843918303
5.97E9                   0.1737153856577594       -0.7051373668178758
6.0E9                    0.10556827431595686      -0.7180501198328322
