% Model:              three_layers reality at 0.1mm.mph
% Version:            COMSOL 5.6.0.280
% Date:               Mar 2 2022, 12:08
% Table:              表格 1 - 全局计算 1
% freq (Hz)              real(emw.S11) (1)        imag(emw.S11) (1)
300000000                0.3736746816153554       -0.8032943788932233
330000000                0.2836789022996019       -0.8360084708971449
360000000                0.1911331954874955       -0.8589473230763711
390000000                0.09705253026245267      -0.8719136781133351
420000000                0.002475494784038368     -0.8748184770323184
450000000                -0.09155009544199935     -0.8676833412749656
480000000                -0.18398098894515727     -0.8506412181494794
510000000                -0.2737917560730124      -0.8239353602789736
540000000                -0.35998749618289827     -0.7879167647591075
570000000                -0.44161593229521695     -0.7430401780925798
600000000                -0.5177788071503723      -0.6898587671038405
630000000                -0.5876424846652816      -0.6290175574777033
660000000                -0.6504476575468328      -0.5612457476216903
690000000                -0.7055180667218798      -0.4873480123019789
720000000                -0.752268144270805       -0.4081949192614821
750000000                -0.7902095028373118      -0.3247125892919681
780000000                -0.8189562067650842      -0.23787173711667275
810000000                -0.8382287743132599      -0.14867623607107291
840000000                -0.8478568756952669      -0.05815135335380969
870000000                -0.8477807076340063      0.032668194889117146
900000000                -0.8380510417143969      0.12275021970134631
930000000                -0.818827960035303       0.21107691851655797
960000000                -0.7903783080563984      0.29665647352889296
990000000                -0.7530719101186286      0.3785342500788027
1020000000               -0.7073766079886309      0.4558034636520925
1050000000               -0.6538521966125216      0.5276151923569631
1080000000               -0.593143343869153       0.5931876222341816
1110000000               -0.5259715923265301      0.6518144242546121
1140000000               -0.45312655058401674     0.7028721745145543
1170000000               -0.37545638994358904     0.7458267424772743
1200000000               -0.2938577683058254      0.7802385864084527
1230000000               -0.20926530778867375     0.8057669096255933
1260000000               -0.1226407554558346      0.8221726458277662
1290000000               -0.03496195748576732     0.8293202566126466
1320000000               0.05278822334776603      0.8271783386571064
1350000000               0.1396329193044691       0.8158190521601446
1380000000               0.2246120743345081       0.79541639555016
1410000000               0.30679294686792924      0.766243364268117
1440000000               0.38528018598685726      0.7286680432577347
1470000000               0.4592253756736259       0.6831486937309924
1500000000               0.527835950084853        0.6302279046368775
1530000000               0.5903833920034546       0.5705258879955372
1560000000               0.646210636387329        0.5047330048911262
1590000000               0.6947386113028551       0.43360161530436053
1620000000               0.7354718592838858       0.35793735021043954
1650000000               0.768003193181594        0.27858990844114073
1680000000               0.792017351807899        0.19644348362236644
1710000000               0.8072936319313304       0.11240692831770616
1740000000               0.8137074845140688       0.027403762932638395
1770000000               0.8112310742185479       -0.05763786346870686
1800000000               0.7999328122951006       -0.14179515508835586
1830000000               0.7799758837662343       -0.2241604915502367
1860000000               0.7516158003588498       -0.3038509918591531
1890000000               0.7151970208013521       -0.38001772716781484
1920000000               0.6711486896700436       -0.45185449642712394
1950000000               0.6199795547661999       -0.5186060877261343
1980000000               0.5622721303176713       -0.5795759593206058
2010000000               0.4986761781991456       -0.6341332881056105
2040000000               0.4299015801600076       -0.6817193499807609
2070000000               0.3567106672757026       -0.7218532161051204
2100000000               0.279910054531528        -0.754136768636104
2130000000               0.20034199184601498      -0.7782590533664457
2.16E9                   0.11887518351992005      -0.7939999798737638
2.19E9                   0.03639494845015001      -0.8012333262633531
2.22E9                   -0.04620747868769222     -0.7999288669380237
2.25E9                   -0.128046693224643       -0.7901531872842669
2.28E9                   -0.20825586548295175     -0.7720684129939897
2.31E9                   -0.2859998268442639      -0.7459278640054651
2.34E9                   -0.3604869036592451      -0.7120679608589575
2.37E9                   -0.4309771934959765      -0.6708969665571198
2.4E9                    -0.49678550383730474     -0.6228830735846674
2.43E9                   -0.5572794795806132      -0.5685455246891001
2.46E9                   -0.6118763215472953      -0.5084512428994813
2.49E9                   -0.6600424319801269      -0.44321610188966565
2.52E9                   -0.7012982016543408      -0.3735071183176071
2.55E9                   -0.735226813360428       -0.30004177642459456
2.58E9                   -0.7614840686147666      -0.22358290706637018
2.61E9                   -0.779806607382018       -0.1449298404266854
2.64E9                   -0.7900173298898551      -0.06490753868405055
2.67E9                   -0.7920280495722883      0.01564477933073613
2.7E9                    -0.7858399513272654      0.09588463971820309
2.73E9                   -0.7715424694208898      0.17497659874858126
2.76E9                   -0.7493110344464631      0.2521017674608329
2.79E9                   -0.7194039587477965      0.3264666389833306
2.82E9                   -0.6821586030823297      0.397311289504545
2.85E9                   -0.6379868973422922      0.46391699509254514
2.88E9                   -0.5873702578609028      0.5256132739410568
2.91E9                   -0.5308539363544729      0.5817843383716622
2.94E9                   -0.4690408390077885      0.6318749255337641
2.97E9                   -0.4025848621996305      0.6753954682474504
3.0E9                    -0.33218380024860833     0.711926566059069
3.03E9                   -0.25857188897779476     0.7411227193071857
3.06E9                   -0.18251205574409257     0.7627152947609935
3.09E9                   -0.10478795196872391     0.7765146990086055
3.12E9                   -0.026195847324141753    0.7824117447998572
3.15E9                   0.05246353410072651      0.7803782050574001
3.18E9                   0.13039315656388198      0.7704665586918727
3.21E9                   0.20680771868619346      0.752808940666173
3.24E9                   0.28094153167571145      0.7276153151755644
3.27E9                   0.3520561642341884       0.6951708947020525
3.3E9                    0.419447792914516        0.6558328289912698
3.33E9                   0.48245419893463687      0.6100261872688774
3.36E9                   0.5404613510209185       0.5582392556976317
3.39E9                   0.5929095086157764       0.5010181721325212
3.42E9                   0.6392987709717481       0.438960924004517
3.45E9                   0.6791939870609845       0.3727107448996872
3.48E9                   0.7122289316241184       0.30294896287102
3.51E9                   0.7381096482924531       0.23038737895921868
3.54E9                   0.7566168661424157       0.15576028598089617
3.57E9                   0.7676074150987753       0.0798162708235911
3.6E9                    0.7710145996924425       0.0033099710692188547
3.63E9                   0.7668475366139949       -0.07300602871177707
3.66E9                   0.7551895120979343       -0.14838897927766423
3.69E9                   0.7361954613196269       -0.2221132674141827
3.72E9                   0.7100887071374548       -0.2934771091956128
3.75E9                   0.6771571186067725       -0.36180854985792493
3.78E9                   0.6377488639952258       -0.42647072718742846
3.81E9                   0.5922679406993634       -0.4868664032079526
3.84E9                   0.5411696600420787       -0.5424418272806663
3.87E9                   0.48495623596243204      -0.5926900598437241
3.9E9                    0.4241725612541439       -0.6371539448805352
3.93E9                   0.3594021551478676       -0.6754289447886168
3.96E9                   0.2912631537480621       -0.7071660206705094
3.99E9                   0.2204041269345579       -0.7320746497856895
4.02E9                   0.14749947612869682      -0.7499259415871986
4.05E9                   0.07324421132165337      -0.7605556843108344
4.08E9                   -0.0016519903601668773   -0.7638670662838012
4.11E9                   -0.07647141200714139     -0.7598327937705647
4.14E9                   -0.15049545971180756     -0.7484963701946555
4.17E9                   -0.22301213402860753     -0.7299723897923213
4.2E9                    -0.2933235604053054      -0.7044458026334505
4.23E9                   -0.36075335484546306     -0.6721701994099185
4.26E9                   -0.42465365872520633     -0.6334652241842984
4.29E9                   -0.4844117444860304      -0.5887132441709418
4.32E9                   -0.5394561510350543      -0.5383553924993429
4.35E9                   -0.5892623407970894      -0.48288706655498265
4.38E9                   -0.6333578760778017      -0.42285292823884846
4.41E9                   -0.6713270971676634      -0.3588414277402844
4.44E9                   -0.7028152603388367      -0.2914788662792484
4.47E9                   -0.7275320723167662      -0.22142302531955702
4.5E9                    -0.7452545473150471      -0.14935641325836638
4.53E9                   -0.7558291158301375      -0.07597920847344906
4.56E9                   -0.7591729306282239      -0.002002002617268651
4.59E9                   -0.7552743418208596      0.07186153453727007
4.62E9                   -0.744192545920131       0.14490194131627823
4.65E9                   -0.7260564480652829      0.21642108227556994
4.68E9                   -0.7010628050063424      0.2857390020093319
4.71E9                   -0.6694737306349717      0.3522004526232461
4.74E9                   -0.631613639948811       0.41518106889490014
4.77E9                   -0.5878656822050307      0.4740931900051673
4.8E9                    -0.5386676794024343      0.5283913296687516
4.83E9                   -0.48450755821545655     0.5775772746108127
4.86E9                   -0.4259182567874258      0.6212047534550167
4.89E9                   -0.36347210839144195     0.6588835805222663
4.92E9                   -0.29777474698713874     0.6902831578162538
4.95E9                   -0.2294586317829234      0.7151352235317596
4.98E9                   -0.15917633429998565     0.7332357671729745
5.01E9                   -0.08759375954202522     0.7444460837431316
5.04E9                   -0.015383475218462374    0.7486930018620767
5.07E9                   0.056781704092867535     0.7459683805381738
5.1E9                    0.1282347851066085       0.7363280120583278
5.13E9                   0.19832029490331848      0.7198900797690568
5.16E9                   0.2663996590166969       0.6968332904455687
5.19E9                   0.33185634885728654      0.6673947354029427
5.22E9                   0.3941008825469382       0.6318674544783501
5.25E9                   0.4525757059316817       0.5905976174853683
5.28E9                   0.5067598953915348       0.5439812305194981
5.31E9                   0.5561735536615284       0.4924603274283751
5.34E9                   0.600381751821152        0.4365186956076419
5.37E9                   0.6389979159128303       0.3766772651744157
5.4E9                    0.6716866421573852       0.31348932259541934
5.43E9                   0.6981660092380647       0.2475356815695398
5.46E9                   0.7182095033978254       0.17941987308886756
5.49E9                   0.7316476681696167       0.10976333573715735
5.52E9                   0.7383695436101743       0.03920052694239007
5.55E9                   0.73832389106244         -0.03162614796615493
5.58E9                   0.7315201303944399       -0.10207167737534534
5.61E9                   0.7180288637126999       -0.17149409805175497
5.64E9                   0.6979818332403624       -0.2392604382306626
5.67E9                   0.6715711687170377       -0.30475284832059235
5.7E9                    0.6390478257696852       -0.3673747493888125
5.73E9                   0.6007191978301218       -0.42655678888797904
5.76E9                   0.5569459816819915       -0.481762402031055
5.79E9                   0.5081384560713094       -0.5324928424657642
5.82E9                   0.4547523583723814       -0.5782916464816035
5.85E9                   0.39728450289034856      -0.6187485870694945
5.88E9                   0.3362681992984987       -0.6535032149023694
5.91E9                   0.2722684466405175       -0.6822480598845743
5.94E9                   0.20587683659489964      -0.7047315011119222
5.97E9                   0.1377061097511076       -0.7207602434521195
6.0E9                    0.06838435476011888      -0.7302012948577127
