% Model:              three_layers reality at 0.1mm.mph
% Version:            COMSOL 5.6.0.280
% Date:               Feb 22 2022, 11:13
% Table:              表格 1 - 全局计算 1
% freq (Hz)              real(emw.S11) (1)        imag(emw.S11) (1)
300000000                0.6317589036157593       -0.7595571929908028
330000000                0.5631247263818739       -0.8121871051671224
360000000                0.49016611361142304      -0.8586314558219561
390000000                0.4134388929780885       -0.8985365288173406
420000000                0.3335277385611175       -0.93159836147344
450000000                0.2510417392862966       -0.9575651032848445
480000000                0.16660977175389374      -0.9762389818953526
510000000                0.0808757126656916       -0.9874778596988391
540000000                -0.0055064737906212365   -0.9911963677776262
570000000                -0.09187773629491361     -0.9873666065641062
600000000                -0.17757898626077628     -0.9760184059003836
630000000                -0.2619561583484492      -0.9572391405215435
660000000                -0.3443652426506161      -0.931173100281325
690000000                -0.4241772483804927      -0.8980204181455046
720000000                -0.5007830603092422      -0.8580355623528574
750000000                -0.5735981488307832      -0.8115254028489697
780000000                -0.6420670955558956      -0.7588468657598375
810000000                -0.7056678979645655      -0.7004041929074633
840000000                -0.7639160176376779      -0.636645827074275
870000000                -0.8163681387482659      -0.5680609469413875
900000000                -0.8626256057983483      -0.495175678624824
930000000                -0.9023375119882762      -0.41854901374820513
960000000                -0.9352034124911068      -0.33876846664390964
990000000                -0.9609756400402404      -0.2564455056215484
1020000000               -0.9794612035848203      -0.17221079532903508
1050000000               -0.9905232543537994      -0.08670928877600766
1080000000               -0.994082107288544       -5.952093303745231E-4
1110000000               -0.990115809788414       0.08547303639182016
1140000000               -0.9786602535656126      0.17083797316756824
1170000000               -0.959808829378572       0.2548481574271655
1200000000               -0.9337116284109443      0.3368632215530835
1230000000               -0.9005741979306621      0.41625882135073655
1260000000               -0.8606558627037324      0.49243144665754657
1290000000               -0.8142676273210665      0.5648030565271526
1320000000               -0.7617696780201095      0.6328255022579409
1350000000               -0.7035685060266802      0.6959847033302354
1380000000               -0.6401136772541943      0.753804544053073
1410000000               -0.5718942761748985      0.8058504610081814
1440000000               -0.4994350540689957      0.8517326944187721
1470000000               -0.42329231386797894     0.8911091796899706
1500000000               -0.3440495659896737      0.9236880583363967
1530000000               -0.2623129905783002      0.9492297911757283
1560000000               -0.17870674313445445     0.9675488598030868
1590000000               -0.09386814106841719     0.9785150459940447
1620000000               -0.00844276934185153     0.982054282093658
1650000000               0.0769204567074663       0.9781490689373457
1680000000               0.1615742331000913       0.966838461205001
1710000000               0.24487777611366682      0.9482176234525961
1740000000               0.3262016611989495       0.9224369633005713
1770000000               0.4049325563785686       0.8897008512715031
1800000000               0.480477815211828        0.8502659398126853
1830000000               0.5522698963927045       0.804439096711459
1860000000               0.6197705783846317       0.7525749708014265
1890000000               0.682474939502767        0.6950732102527291
1920000000               0.7399150758358733       0.6323753559849498
1950000000               0.7916635315997497       0.5649614347639361
1980000000               0.8373364187746731       0.49334627844338635
2010000000               0.8765962054240625       0.4180755973398509
2040000000               0.909154154599873        0.33972183719725196
2070000000               0.934772398509907        0.2588798501969851
2100000000               0.9532656353867314       0.17616241122894838
2130000000               0.9645024393082718       0.09219561071003768
2.16E9                   0.9684061756629533       0.007614155151096924
2.19E9                   0.9649555168812498       -0.0769433946873602
2.22E9                   0.9541845533981417       -0.16083941917717784
2.25E9                   0.93618249320281         -0.2434420401973002
2.28E9                   0.9110929398709282       -0.32412989491603006
2.31E9                   0.8791127366392744       -0.40229684214557215
2.34E9                   0.8404903700214761       -0.4773565445949608
2.37E9                   0.795523948275028        -0.5487468569605245
2.4E9                    0.7445588053480336       -0.6159339555601524
2.43E9                   0.6879848072393391       -0.6784161820714436
2.46E9                   0.6262334250492331       -0.7357276250626951
2.49E9                   0.5597745877185275       -0.7874414854319447
2.52E9                   0.4891132790244925       -0.833173243255348
2.55E9                   0.4147858390918433       -0.87258359029906
2.58E9                   0.3373559660691582       -0.9053810603296454
2.61E9                   0.25741045373596466      -0.9313242939244406
2.64E9                   0.17555472078940415      -0.9502238988568842
2.67E9                   0.09240818770812798      -0.9619438897866325
2.7E9                    0.008599549137946028     -0.9664027033958335
2.73E9                   -0.07523801801542494     -0.9635737894173966
2.76E9                   -0.15847167448913418     -0.9534857786827833
2.79E9                   -0.24047373192038998     -0.9362222296754402
2.82E9                   -0.32062642450715        -0.9119209561981121
2.85E9                   -0.39832660393580266     -0.8807729408078807
2.88E9                   -0.4729903221036167      -0.8430208413725357
2.91E9                   -0.5440572662999115      -0.7989571012131119
2.94E9                   -0.610995012281016       -0.7489216764662131
2.97E9                   -0.6733030615547805      -0.6932993976212757
3.0E9                    -0.7305166307627721      -0.6325169853190841
3.03E9                   -0.7822101628543264      -0.5670397435391579
3.06E9                   -0.8280005319160599      -0.49736795613920476
3.09E9                   -0.8675499159801587      -0.4240330153657157
3.12E9                   -0.9005683149190356      -0.3475933132914352
3.15E9                   -0.9268156935589158      -0.2686299291306517
3.18E9                   -0.9461037332660619      -0.18774214730171823
3.21E9                   -0.95829717875647        -0.10554284221349042
3.24E9                   -0.9633147702381027      -0.0226537669514002
3.27E9                   -0.9611297545536118      0.060299216349521935
3.3E9                    -0.951769972500843       0.1426909265739009
3.33E9                   -0.9353175229100229      0.2239016360737813
3.36E9                   -0.9119080074380487      0.3033217879640624
3.39E9                   -0.8817293632546228      0.38035662130666154
3.42E9                   -0.8450202940042127      0.45443066787658887
3.45E9                   -0.8020683124640728      0.5249920854224713
3.48E9                   -0.7532074114662971      0.5915167932770781
3.51E9                   -0.698815382693608       0.6535123777508144
3.54E9                   -0.6393108062058763      0.7105217362780821
3.57E9                   -0.5751497365824378      0.7621264316243272
3.6E9                    -0.5068221147248412      0.8079497299495041
3.63E9                   -0.43484793702196556     0.8476592998672277
3.66E9                   -0.359773215775228       0.8809695533402335
3.69E9                   -0.28216576637242624     0.9076436132327714
3.72E9                   -0.20261085750296967     0.9274948964708861
3.75E9                   -0.12170676103549774     0.9403883057473916
3.78E9                   -0.040060238057041       0.9462410266518104
3.81E9                   0.04171800326198536      0.9450229310532748
3.84E9                   0.12301784359265683      0.9367565913281029
3.87E9                   0.2032342501446344       0.9215169133859238
3.9E9                    0.28177170711550587      0.8994303987635832
3.93E9                   0.3580485528270398       0.870674047000242
3.96E9                   0.43150119994565694      0.8354739090851452
3.99E9                   0.5015882158212567       0.7941033017632114
4.02E9                   0.5677942392011567       0.7468806919143538
4.05E9                   0.6296337078006644       0.6941672609496877
4.08E9                   0.6866543692287479       0.6363641617700568
4.11E9                   0.7384405470283778       0.5739094847462233
4.14E9                   0.7846161343339717       0.5072749537777899
4.17E9                   0.8248472899867164       0.43696237796550713
4.2E9                    0.858844815771337        0.36349988765807617
4.23E9                   0.8863661975774374       0.28743798593493397
4.26E9                   0.9072172976793245       0.20934544719873296
4.29E9                   0.9212536889731524       0.1298050944335865
4.32E9                   0.9283816249437916       0.04940948581293836
4.35E9                   0.9285586411848705       -0.031243459453633937
4.38E9                   0.9217937858125304       -0.11155486659177316
4.41E9                   0.9081474774803895       -0.19092931262581087
4.44E9                   0.8877309912572632       -0.2687792057285609
4.47E9                   0.8607055746300788       -0.34452910602665887
4.5E9                    0.8272811983395152       -0.4176199568623735
4.53E9                   0.7877149496226764       -0.48751319524171727
4.56E9                   0.7423090785028642       -0.5536947105577679
4.59E9                   0.6914087109692066       -0.6156786214215727
4.62E9                   0.6353992459975046       -0.6730108418475395
4.65E9                   0.5747034562494789       -0.7252724099621863
4.68E9                   0.5097783146236298       -0.7720825548850443
4.71E9                   0.44111157053085287      -0.8131014800572732
4.74E9                   0.36921810078135686      -0.8480328437812036
4.77E9                   0.2946360604772213       -0.8766259197481179
4.8E9                    0.21792285993827393      -0.8986774216217039
4.83E9                   0.1396509948003631       -0.9140329766630115
4.86E9                   0.06040375833909835      -0.9225882343893931
4.89E9                   -0.019229132329471457    -0.924289597962742
4.92E9                   -0.09865596187425787     -0.9191345688099472
4.95E9                   -0.17728745755487393     -0.9071716988781509
4.98E9                   -0.2545412073357611      -0.8885001496926247
5.01E9                   -0.3298460172797511      -0.8632688625504379
5.04E9                   -0.40264617154912696     -0.8316753492390447
5.07E9                   -0.4724055608627333      -0.7939641170743568
5.1E9                    -0.5386116487119172      -0.7504247452951353
5.13E9                   -0.600779248362174       -0.7013896315427602
5.16E9                   -0.6584540867519975      -0.6472314273445025
5.19E9                   -0.7112161330159806      -0.5883601808013537
5.22E9                   -0.7586826690208376      -0.5252202044726398
5.25E9                   -0.8005110780011286      -0.4582866877933593
5.28E9                   -0.83640132631177        -0.3880620771261099
5.31E9                   -0.8660981143674035      -0.31507225204430117
5.34E9                   -0.8893926769655827      -0.23986253157014656
5.37E9                   -0.9061242194323196      -0.16299354745718875
5.4E9                    -0.9161809829492263      -0.0850370216948186
5.43E9                   -0.9195009379009195      -0.006571483068941549
5.46E9                   -0.9160721072307212      0.0718220457952684
5.49E9                   -0.9059325227529499      0.1495643625512936
5.52E9                   -0.8891698170802309      0.22608237346332097
5.55E9                   -0.8659204534370357      0.30081332898965835
5.58E9                   -0.8363685959684095      0.37320897824683263
5.61E9                   -0.8007446246582198      0.44273961204909784
5.64E9                   -0.7593233018456471      0.5088979621002898
5.67E9                   -0.7124216016167784      0.5712029224043067
5.7E9                    -0.6603962189260513      0.6292030586793488
5.73E9                   -0.6036407816941587      0.6824798733330016
5.76E9                   -0.5425827949106397      0.730650798109959
5.79E9                   -0.47768034939391174     0.7733718932160856
5.82E9                   -0.40941862807333074     0.810340238962834
5.85E9                   -0.33830623984670566     0.8412960114293206
5.88E9                   -0.26487140714154717     0.8660242358746921
5.91E9                   -0.18965803072159224     0.8843562109939411
5.94E9                   -0.1132216552937818      0.8961705954457454
5.97E9                   -0.03612536170758247     0.9013941473641682
6.0E9                    0.04106438523779659      0.9000021087405582
