% Model:              three_layers reality at 0.1mm.mph
% Version:            COMSOL 5.6.0.280
% Date:               Mar 9 2022, 10:18
% Table:              表格 1 - 全局计算 1
% freq (Hz)              real(emw.S11) (1)        imag(emw.S11) (1)
300000000                0.5735471913607578       -0.7632165052715912
330000000                0.5014543407814459       -0.8111346900827812
360000000                0.4255146213113699       -0.8523562546078207
390000000                0.34632239726895975      -0.8865751194464329
420000000                0.26450090955265554      -0.9135352918436799
450000000                0.18069729928940728      -0.9330345283176986
480000000                0.09557735104267079      -0.9449272334183988
510000000                0.009820022434728416     -0.9491266674147758
540000000                -0.07588818357011623     -0.9456065065904226
570000000                -0.1608589595836703      -0.9344017825988126
600000000                -0.24440799519124862     -0.9156092163110877
630000000                -0.32586079112822797     -0.8893869571995525
660000000                -0.40455843553740806     -0.8559537371380298
690000000                -0.4798632899012799      -0.8155874482594423
720000000                -0.551164531486775       -0.768623157259763
750000000                -0.6178834985749346      -0.7154505723900819
780000000                -0.6794787852488958      -0.6565109831205564
810000000                -0.7354510331589138      -0.5922936987243321
840000000                -0.7853473695900803      -0.5233320164786786
870000000                -0.82876544358598        -0.45019875640444396
900000000                -0.8653570161025306      -0.37350140404903154
930000000                -0.894831063519246       -0.29387690845531206
960000000                -0.9169563595396846      -0.21198618701594185
990000000                -0.9315635060939713      -0.1285083927239951
1020000000               -0.9385463902701038      -0.04413500201581672
1050000000               -0.9378630507360116      0.04043621392752868
1080000000               -0.9295359447679149      0.12450727339639617
1110000000               -0.913651613946556       0.20738605866325358
1140000000               -0.8903597539242551      0.2883923187228746
1170000000               -0.8598717012732306      0.3668635371451601
1200000000               -0.8224583568380983      0.442160606454991
1230000000               -0.7784475722635081      0.5136732511469531
1260000000               -0.7282210319426938      0.5808251471072626
1290000000               -0.672210668430055       0.6430786890295918
1320000000               -0.6108946538512976      0.6999393627197756
1350000000               -0.5447930142786359      0.7509596846913645
1380000000               -0.4744629162890265      0.7957426780700937
1410000000               -0.4004936788949247      0.833944858807747
1440000000               -0.323501562928773       0.8652787144484213
1470000000               -0.24412439366203753     0.8895146617771534
1500000000               -0.16301606935257348     0.906482477639483
1530000000               -0.08084100973592481     0.9160722019339373
1560000000               0.0017314044026623067    0.918234517873175
1590000000               0.08403235133008878      0.9129806194033793
1620000000               0.16539900056631593      0.9003815804211908
1650000000               0.24517981452781684      0.8805672444424593
1680000000               0.32273967829213607      0.8537246568819393
1710000000               0.39746482105325853      0.8200960651256022
1740000000               0.4687674957417066       0.7799765139815581
1770000000               0.5360903875457911       0.7337110658742425
1800000000               0.5989107248170635       0.6816916769239293
1830000000               0.656744070594304        0.6243537604467442
1860000000               0.709147775153867        0.5621724706049358
1890000000               0.7557240739834203       0.4956587387316647
1920000000               0.796122818182425        0.4253550950557415
1950000000               0.8300438271718463       0.35183130818632113
1980000000               0.8572388559764278       0.27567987441113634
2010000000               0.8775131717625965       0.19751138822829617
2040000000               0.8907267362783021       0.11794982499067617
2070000000               0.8967949928224684       0.03762776589673453
2100000000               0.8956892580280243       -0.04281840482707322
2130000000               0.8874367205530551       -0.12275330193587704
2.16E9                   0.8721200502509782       -0.201547311432118
2.19E9                   0.8498766230047707       -0.27858130590268176
2.22E9                   0.8208973680207237       -0.35325127546824087
2.25E9                   0.7854252458281782       -0.4249728485992192
2.28E9                   0.7437533666838455       -0.49318567800969904
2.31E9                   0.6962227599320223       -0.5573576686047409
2.34E9                   0.6432198052364196       -0.6169890264588899
2.37E9                   0.5851733347579247       -0.6716161105757217
2.4E9                    0.5225514120555251       -0.720815069916065
2.43E9                   0.4558577859059126       -0.7642052475374822
2.46E9                   0.3856280089677096       -0.801452324841352
2.49E9                   0.3124252037484141       -0.8322711604996933
2.52E9                   0.23683546526753593      -0.8564282460260412
2.55E9                   0.15946292429203998      -0.8737436635885667
2.58E9                   0.0809245681258556       -0.8840924170985762
2.61E9                   0.0018450095318781835    -0.8874050548959865
2.64E9                   -0.07714855405837273     -0.8836676316162322
2.67E9                   -0.1554310145891135      -0.8729212177483756
2.7E9                    -0.232383674005595       -0.8552612396721208
2.73E9                   -0.3073984250021206      -0.8308368317860837
2.76E9                   -0.3798820603892008      -0.7998501595434812
2.79E9                   -0.4492608538081007      -0.7625554912879705
2.82E9                   -0.5149853567609993      -0.7192577724533238
2.85E9                   -0.5765352264486377      -0.6703105617068178
2.88E9                   -0.6334238814839454      -0.616113320940245
2.91E9                   -0.6852028367067078      -0.5571081350550026
2.94E9                   -0.7314656339314287      -0.49377596286340825
2.97E9                   -0.7718513322797985      -0.42663250984033074
3.0E9                    -0.8060475432445744      -0.3562237941212678
3.03E9                   -0.8337930024124248      -0.2831214610430454
3.06E9                   -0.8548796694879096      -0.20791789299649605
3.09E9                   -0.8691543470697773      -0.1312211586919154
3.12E9                   -0.8765198090331311      -0.05364984601485395
3.15E9                   -0.8769354312377525      0.024172175122968053
3.18E9                   -0.8704173211338386      0.10162101244472331
3.21E9                   -0.857037947331925       0.1780779844042758
3.24E9                   -0.8369252755187262      0.2529347777579766
3.27E9                   -0.8102614223860946      0.32559848146324133
3.3E9                    -0.7772808444565584      0.3954964501886467
3.33E9                   -0.7382680835007378      0.4620809532948873
3.36E9                   -0.6935550947732003      0.524833567785273
3.39E9                   -0.6435181881830316      0.5832692773436486
3.42E9                   -0.5885746160453812      0.6369402431672432
3.45E9                   -0.5291788441726334      0.6854392162825351
3.48E9                   -0.4658185454716737      0.7284025654815737
3.51E9                   -0.3990103575389542      0.7655128992899686
3.54E9                   -0.32929544707730596     0.7965012652936637
3.57E9                   -0.2572349250023108      0.8211489149605807
3.6E9                    -0.18340515674422095     0.8392886269199581
3.63E9                   -0.10839301162852469     0.850805586927204
3.66E9                   -0.03279109429490976     0.8556378274854929
3.69E9                   0.04280700072661858      0.8537762347226301
3.72E9                   0.1178113730264963       0.8452641340636942
3.75E9                   0.1916404036466707       0.8301964691916578
3.78E9                   0.2637252138260113       0.808718590678391
3.81E9                   0.3335139659061277       0.7810246714974718
3.84E9                   0.40047597881277075      0.7473557669467439
3.87E9                   0.46410563129926247      0.7079975367937937
3.9E9                    0.5239260255288162       0.6632776486881469
3.93E9                   0.5794923827966454       0.6135628845447544
3.96E9                   0.6303951429551824       0.5592559761874576
3.99E9                   0.6762627407041081       0.5007922025782311
4.02E9                   0.7167640364494648       0.4386357876951764
4.05E9                   0.7516103874785938       0.37327614353043337
4.08E9                   0.7805573561305927       0.30522400463623606
4.11E9                   0.8034060631492242       0.23500749758970688
4.14E9                   0.8200042034330409       0.16316818031615865
4.17E9                   0.8302467449468619       0.09025707474695413
4.2E9                    0.8340763284474253       0.01683070563376358
4.23E9                   0.8314833780349926       -0.05655284747188816
4.26E9                   0.8225059243175843       -0.12933787780213896
4.29E9                   0.8072291374252654       -0.20097494583886744
4.32E9                   0.7857845679454969       -0.2709247220870547
4.35E9                   0.7583490985732223       -0.3386617567015493
4.38E9                   0.7251436142183167       -0.40367815599315304
4.41E9                   0.6864313999884786       -0.4654871505856149
4.44E9                   0.6425162739214951       -0.523626543949704
4.47E9                   0.5937404561232411       -0.5776620305362811
4.5E9                    0.5404821713209568       -0.6271903687178364
4.53E9                   0.4831529804222406       -0.6718423866288421
4.56E9                   0.42219484024087744      -0.7112857909939829
4.59E9                   0.35807689756219185      -0.7452277437315227
4.62E9                   0.29129203364318546      -0.7734171688445141
4.65E9                   0.2223531848636771       -0.7956467544900051
4.68E9                   0.1517894734391838       -0.8117546208234041
4.71E9                   0.08014218754178337      -0.8216256323729136
4.74E9                   0.007960651775336381     -0.8251923428691422
4.77E9                   -0.06420197300836304     -0.8224355686863206
4.8E9                    -0.13579292610906712     -0.8133845926137072
4.83E9                   -0.20626409046233152     -0.7981170017353932
4.86E9                   -0.27507621818322114     -0.776758161956739
4.89E9                   -0.34170311362688466     -0.7494803288818664
4.92E9                   -0.40563574774799416     -0.7165013924031383
4.95E9                   -0.4663862723615062      -0.6780832524332393
4.98E9                   -0.5234918987463083      -0.6345298259959806
5.01E9                   -0.5765186009276239      -0.5861846912846079
5.04E9                   -0.6250646023451788      -0.5334283810708794
5.07E9                   -0.6687636047758205      -0.4766753453445913
5.1E9                    -0.7072877207381549      -0.41637061053235364
5.13E9                   -0.7403500750195668      -0.35298616966014457
5.16E9                   -0.7677070474572416      -0.2870171438449975
5.19E9                   -0.7891601378777943      -0.2189777587189548
5.22E9                   -0.8045574430491114      -0.14939717957933848
5.25E9                   -0.8137947433040189      -0.0788152449394488
5.28E9                   -0.8168162000777435      -0.007778132024274104
5.31E9                   -0.8136146645665591      0.0631660176919993
5.34E9                   -0.8042315934359474      0.13347148639314954
5.37E9                   -0.7887565636472034      0.20259935102184845
5.4E9                    -0.7673263784394458      0.27002179982270014
5.43E9                   -0.7401237618313021      0.33522634910734034
5.46E9                   -0.7073756485602329      0.39771990997954315
5.49E9                   -0.6693510878182893      0.4570326544654677
5.52E9                   -0.626358790122552       0.5127216342915725
5.55E9                   -0.578744355763379       0.564374112849968
5.58E9                   -0.5268872297175538      0.6116105805765646
5.61E9                   -0.47119743112629986     0.6540874354078412
5.64E9                   -0.4121121041662331      0.6914993222984519
5.67E9                   -0.35009193075686085     0.7235811365719942
5.7E9                    -0.2856174342880067      0.7501097021706422
5.73E9                   -0.21918519111169169     0.7709051340781587
5.76E9                   -0.15130395819247672     0.7858318844560634
5.79E9                   -0.0824907270171952      0.7947994583393713
5.82E9                   -0.013266726521872486    0.7977627754159298
5.85E9                   0.055846584532130095     0.7947221567178433
5.88E9                   0.12433148153356299      0.785722929637281
5.91E9                   0.19167783862853938      0.7708546655374061
5.94E9                   0.2573868482582071       0.7502500818084789
5.97E9                   0.3209745671778368       0.7240836484793678
6.0E9                    0.38197527669509346      0.69256993754564
