% Model:              three_layers reality at 0.1mm.mph
% Version:            COMSOL 5.6.0.280
% Date:               Mar 9 2022, 10:22
% Table:              表格 1 - 全局计算 1
% freq (Hz)              real(emw.S11) (1)        imag(emw.S11) (1)
300000000                0.5792706536559539       -0.7677895409181756
330000000                0.5067158161708457       -0.8164325215289999
360000000                0.4302279406837672       -0.8583109303107718
390000000                0.3504088397734199       -0.8931139663489737
420000000                0.2678929160763799       -0.9205794621120301
450000000                0.18333800104413048      -0.9405000605092149
480000000                0.09742040219376627      -0.9527259834455353
510000000                0.010829530956087297     -0.9571672120880642
540000000                -0.07573769036117001     -0.9537950483831822
570000000                -0.16158256695977383     -0.9426430657457371
600000000                -0.2460104601457987      -0.9238074570449734
630000000                -0.3283366467235067      -0.8974467851524857
660000000                -0.4078921567414784      -0.8637811416934111
690000000                -0.4840295293878838      -0.8230907222785867
720000000                -0.556128433669485       -0.7757138284772989
750000000                -0.6236010953085795      -0.7220443123851776
780000000                -0.6858974747460433      -0.6625284837815243
810000000                -0.7425101420901693      -0.5976615049881533
840000000                -0.7929787945338229      -0.5279833063083506
870000000                -0.8368943691220153      -0.45407405685327035
900000000                -0.8739027026043367      -0.3765492350612762
930000000                -0.9037076978065054      -0.29605434612972814
960000000                -0.9260739602226782      -0.2132593381934612
990000000                -0.9408288738342456      -0.12885277543507387
1020000000               -0.9478640929046496      -0.043535826598326256
1050000000               -0.9471364323987747      0.0419838673880745
1080000000               -0.9386681476060617      0.12699838266248814
1110000000               -0.922546600881378       0.21080569382935851
1140000000               -0.8989233209279966      0.29271578222740335
1170000000               -0.8680124675806022      0.3720566081148289
1200000000               -0.8300887221394545      0.44817988563659983
1230000000               -0.7854846302302054      0.520466602021389
1260000000               -0.7345874301809848      0.5883322275714952
1290000000               -0.677835405830746       0.6512315666161819
1320000000               -0.6157138073056218      0.7086632056481079
1350000000               -0.5487503874480908      0.7601735203858961
1380000000               -0.47751060498850484     0.8053602095959491
1410000000               -0.4025925475118397      0.8438753301880481
1440000000               -0.3246216291724066      0.8754278142428827
1470000000               -0.2442451183704793      0.8997854554038893
1500000000               -0.1621265508630291      0.9167763579310453
1530000000               -0.07894008194445111     0.9262898482443535
1560000000               0.004635168847410398     0.928276853860154
1590000000               0.08792073088153707      0.922749760285014
1620000000               0.17024430559306689      0.9097817608090895
1650000000               0.2509451545474473       0.8895057184442596
1680000000               0.3293793122240944       0.8621125627683235
1710000000               0.40492458508408335      0.8278492475378564
1740000000               0.4769853039498413       0.7870162972002617
1770000000               0.5449967991177588       0.7399649725877143
1800000000               0.6084295721120768       0.6870940873553422
1830000000               0.6667931417835291       0.6288465074704691
1860000000               0.7196395447137104       0.5657053672978811
1890000000               0.7665664748536326       0.4981900350701558
1920000000               0.8072200487998252       0.4268518613356432
1950000000               0.8412971866972474       0.3522697434172439
1980000000               0.8685476014574786       0.2750455377904334
2010000000               0.8887753903418318       0.19579935329523812
2040000000               0.9018402262801228       0.11516475545219358
2070000000               0.9076581470948146       0.033783913679815286
2100000000               0.9062019434674078       -0.047697279708698664
2130000000               0.8975011474494071       -0.1286340879825562
2.16E9                   0.8816416254308888       -0.20838777863348842
2.19E9                   0.8587647807852005       -0.28633041260232817
2.22E9                   0.8290663731166529       -0.3618495477307599
2.25E9                   0.7927949625607416       -0.4343528296514948
2.28E9                   0.7502499888806249       -0.5032724451772597
2.31E9                   0.7017794964906277       -0.5680694144837313
2.34E9                   0.6477775160628948       -0.6282377015960796
2.37E9                   0.5886811124538476       -0.6833081240400773
2.4E9                    0.5249671047196565       -0.73285204452068
2.43E9                   0.45714845618635924      -0.7764848267500895
2.46E9                   0.3857703238504382       -0.8138690285001628
2.49E9                   0.3114057484800057       -0.8447172861324378
2.52E9                   0.23465097252429726      -0.8687948115131375
2.55E9                   0.15612040815057623      -0.8859213835614727
2.58E9                   0.07644135225739533      -0.8959727001741927
2.61E9                   -0.0037513569979108043   -0.898881002733142
2.64E9                   -0.08382049148814873     -0.8946350173720504
2.67E9                   -0.16313120550273405     -0.8832794245960982
2.7E9                    -0.24105543644388147     -0.8649141498802897
2.73E9                   -0.3169761493318041      -0.8396936684941768
2.76E9                   -0.39029170349288433     -0.8078262895469264
2.79E9                   -0.460420493634624       -0.7695731948936656
2.82E9                   -0.5268058153947464      -0.725246978751998
2.85E9                   -0.5889207678012933      -0.6752095400610705
2.88E9                   -0.6462729849757087      -0.6198693152422479
2.91E9                   -0.6984090422107663      -0.5596779273833147
2.94E9                   -0.7449184500271429      -0.4951263546981456
2.97E9                   -0.7854371971101838      -0.42674071204083486
3.0E9                    -0.8196508266106326      -0.3550777192180983
3.03E9                   -0.8472970373827874      -0.2807199135077914
3.06E9                   -0.868167801782478       -0.2042706548837513
3.09E9                   -0.8821109906429057      -0.12634896941628357
3.12E9                   -0.8890314964129449      -0.04758427641978404
3.15E9                   -0.8888918474481109      0.031388953211533815
3.18E9                   -0.881712310262194       0.10993655850549787
3.21E9                   -0.8675704813192614      0.18743001970907006
3.24E9                   -0.8466003752171191      0.26325170944163345
3.27E9                   -0.8189910216280109      0.33680001415261057
3.3E9                    -0.7849845886181281      0.40749427862773635
3.33E9                   -0.7448740550108042      0.4747795281741518
3.36E9                   -0.6990004588148847      0.5381309267664113
3.39E9                   -0.6477497529959444      0.597057932245025
3.42E9                   -0.5915493032729899      0.6511081140098708
3.45E9                   -0.530864065598957       0.6998706027835916
3.48E9                   -0.46619248391536        0.7429791459728652
3.51E9                   -0.3980621503284118      0.7801147474547948
3.54E9                   -0.3270252719010273      0.8110078748406967
3.57E9                   -0.25365398883102497     0.8354402226750879
3.6E9                    -0.1785355894445534      0.8532460248372975
3.63E9                   -0.10226766678736894     0.8643129147415289
3.66E9                   -0.025453260747636187    0.8685823367770296
3.69E9                   0.051303972584874735     0.8660495172204951
3.72E9                   0.12740452538787342      0.8567630068013407
3.75E9                   0.2022577006587911       0.8408238101103168
3.78E9                   0.2752861405829105       0.8183841189045329
3.81E9                   0.3459301911257665       0.7896456672283118
3.84E9                   0.413652075349947        0.7548577263754803
3.87E9                   0.4779398482240357       0.7143147580553706
3.9E9                    0.5383111055243323       0.6683537451605646
3.93E9                   0.5943164183102573       0.6173512222584838
3.96E9                   0.6455424642425364       0.5617200324523589
3.99E9                   0.6916148283967328       0.5019058435951746
4.02E9                   0.7322004510356582       0.43838346352405333
4.05E9                   0.767009707662158        0.37165299987813316
4.08E9                   0.7957981181343694       0.30223591195883626
4.11E9                   0.8183676933160314       0.2306709991942797
4.14E9                   0.8345679372597307       0.15751036198743643
4.17E9                   0.8442965264894341       0.08331535917511682
4.2E9                    0.8474996850626749       0.008652574950250295
4.23E9                   0.8441722660307633       -0.06591019783906941
4.26E9                   0.8343575415034981       -0.1398079509353468
4.29E9                   0.8181466986235311       -0.21248241799777837
4.32E9                   0.7956780395402888       -0.28338597739986615
4.35E9                   0.7671358882317968       -0.35198547881232845
4.38E9                   0.7327492120894252       -0.41776597343488703
4.41E9                   0.6927899679664347       -0.4802343325038731
4.44E9                   0.6475711797694057       -0.5389227428324457
4.47E9                   0.5974447492635697       -0.5933920687960994
4.5E9                    0.5427989968606081       -0.6432350659694026
4.53E9                   0.4840559277596171       -0.6880794242156623
4.56E9                   0.4216682220202927       -0.7275906100684348
4.59E9                   0.3561159547967854       -0.7614744721630274
4.62E9                   0.2879030627331307       -0.789479571473962
4.65E9                   0.21755358260113644      -0.8113992002371595
4.68E9                   0.14560769700394866      -0.8270730591585522
4.71E9                   0.07261762724483632      -0.8363885711028474
4.74E9                   -8.565844687042912E-4    -0.8392818187167745
4.77E9                   -0.07425136337359213     -0.8357381020440493
4.8E9                    -0.14700392559639913     -0.8257921180214196
4.83E9                   -0.21855660683482886     -0.8095277658935454
4.86E9                   -0.2883611703251959      -0.7870775813987532
4.89E9                   -0.35588306940589015     -0.7586217996329528
4.92E9                   -0.42060563739802426     -0.7243870441264081
4.95E9                   -0.48203417321994735     -0.6846446395876219
4.98E9                   -0.5396998860410898      -0.6397085487026339
5.01E9                   -0.5931636586211005      -0.5899329387734144
5.04E9                   -0.6420195868906835      -0.5357093910660725
5.07E9                   -0.6858982538014109      -0.47746377328342265
5.1E9                    -0.7244696975629665      -0.4156528034957734
5.13E9                   -0.7574460392280733      -0.3507603408776629
5.16E9                   -0.7845837410806721      -0.2832934449863336
5.19E9                   -0.8056854764075558      -0.21377824860813038
5.22E9                   -0.820601600554759       -0.14275568941723368
5.25E9                   -0.8292312212611073      -0.07077714137365003
5.28E9                   -0.8315228700168822      0.0016000194171709567
5.31E9                   -0.8274747752645818      0.07381688569387357
5.34E9                   -0.8171347337540873      0.14531749955261536
5.37E9                   -0.80059957242184        0.21555331175862313
5.4E9                    -0.7780141929850908      0.28398758144499864
5.43E9                   -0.7495701968516345      0.3500996697865719
5.46E9                   -0.7155040977012086      0.4133891765840442
5.49E9                   -0.6760951408676789      0.47337986782219377
5.52E9                   -0.6316627599221764      0.5296233465544383
5.55E9                   -0.5825637102273346      0.5817024268000336
5.58E9                   -0.5291889259620428      0.6292341801013196
5.61E9                   -0.47196015028037475     0.6718726364222808
5.64E9                   -0.4113263871109357      0.7093111335582418
5.67E9                   -0.3477602163589983      0.7412843206492106
5.7E9                    -0.28175400273194723     0.7675698277856304
5.73E9                   -0.21381601532057495     0.7879896120787362
5.76E9                   -0.14446646630996016     0.8024109804987396
5.79E9                   -0.07423347891781162     0.8107472754937192
5.82E9                   -0.0036490072636174986   0.8129581998325807
5.85E9                   0.06675525062399786      0.8090497591036576
5.88E9                   0.13645189147577722      0.7990738153015826
5.91E9                   0.2049217399569866       0.7831272663050917
5.94E9                   0.2716576298017092       0.7613508842502872
5.97E9                   0.336168003808881        0.7339278543118204
6.0E9                    0.39798032047026893      0.7010820534992727
