% Model:              three_layers reality at 0.1mm.mph
% Version:            COMSOL 5.6.0.280
% Date:               Mar 7 2022, 22:44
% Table:              表格 1 - 全局计算 1
% freq (Hz)              real(emw.S11) (1)        imag(emw.S11) (1)
300000000                0.514299670284465        -0.8041867571854975
330000000                0.4323302260549127       -0.8490643911818969
360000000                0.3466497205220826       -0.8856928390250683
390000000                0.2580626651913624       -0.9137796009484257
420000000                0.16739901658232484      -0.9331081281886746
450000000                0.07550642748347727      -0.9435407603809607
480000000                -0.016757746320633694    -0.9450206774950488
510000000                -0.10853458177830984     -0.9375728923482122
540000000                -0.1989717652945771      -0.9213043099361112
570000000                -0.2872317136742512      -0.8964028823066402
600000000                -0.3724995466723294      -0.8631358914447976
630000000                -0.45399082359317444     -0.8218473970950184
660000000                -0.5309589615095359      -0.7729548915512507
690000000                -0.6027022578381418      -0.716945208890862
720000000                -0.6685704459403755      -0.654369741460537
750000000                -0.727970718456576       -0.5858390217971643
780000000                -0.7803731596600646      -0.512016733025903
810000000                -0.8253155349423568      -0.4336132154936729
840000000                -0.8624073931747493      -0.3513785412652326
870000000                -0.8913334452607189      -0.26609523134411556
900000000                -0.9118561900979734      -0.17857069342102544
930000000                -0.923817767608419       -0.08962945929353022
960000000                -0.927141026460255       -1.0530275936751974E-4
990000000                -0.9218298027803427      0.0891666817933914
1020000000               -0.9079684141282895      0.1773579597386172
1050000000               -0.8857203812224574      0.26365431733091577
1080000000               -0.855326397721068       0.3472634272835202
1110000000               -0.817101575782615       0.42742214563474157
1140000000               -0.7714320022726624      0.5034034707736141
1170000000               -0.7187706469723353      0.574523099633211
1200000000               -0.659632670103029       0.6401455215271175
1230000000               -0.5945901820319482      0.6996895952024975
1260000000               -0.5242665123700575      0.7526335614769702
1290000000               -0.44933005011270133     0.7985194495033987
1320000000               -0.3704877191923366      0.836956842208257
1350000000               -0.28847815695862106     0.8676259726841749
1380000000               -0.2040646641231339      0.890280131107573
1410000000               -0.11802799639485517     0.9047473683221299
1440000000               -0.03115906777037374     0.9109314896625693
1470000000               0.05574836468874178      0.9088123394381653
1500000000               0.14190496600295363      0.8984453833316253
1530000000               0.22653297166438213      0.8799606025660216
1560000000               0.308873154653646        0.853560719902421
1590000000               0.38819154982040766      0.8195187835140015
1620000000               0.46378587760039774      0.7781751402506641
1650000000               0.5349916130269151       0.7299338349518726
1680000000               0.6011876504122601       0.6752584771281152
1710000000               0.6618015189351318       0.6146676204183642
1740000000               0.7163141093084321       0.5487297040301267
1770000000               0.7642638773285739       0.4780576084559982
1800000000               0.8052504959008197       0.4033028803668435
1830000000               0.8389379331514647       0.3251496837528661
1860000000               0.8650569409688729       0.2443085356082417
1890000000               0.8834069450782916       0.1615098853313043
1920000000               0.8938573354527354       0.07749759642773024
1950000000               0.8963481638608659       -0.006977612341927671
1980000000               0.890890264248138        -0.09116471321140956
2010000000               0.8775648207865505       -0.17431885659295998
2040000000               0.856522417281309        -0.25570776422877245
2070000000               0.8279816079790255       -0.33461801206846653
2100000000               0.7922270490366969       -0.410361214307382
2130000000               0.7496072130245864       -0.48228015850840644
2.16E9                   0.7005316606186871       -0.5497549860312964
2.19E9                   0.6454677433973374       -0.6122095430328871
2.22E9                   0.5849364439322029       -0.6691179974739158
2.25E9                   0.5195068459687635       -0.720011640104413
2.28E9                   0.4497885917114804       -0.7644853600128682
2.31E9                   0.37642190306496454      -0.8022026097009708
2.34E9                   0.3000656627426379       -0.8328970804656507
2.37E9                   0.22138564322814158      -0.8563695795103087
2.4E9                    0.14104625279125554      -0.8724804599187472
2.43E9                   0.0597084445194799       -0.8811408217382457
2.46E9                   -0.021966822821055845    -0.8823072068989856
2.49E9                   -0.10331372498602143     -0.8759826399735424
2.52E9                   -0.18366009273870196     -0.8622228197522489
2.55E9                   -0.26233141333419613     -0.8411435261497333
2.58E9                   -0.33865914257190444     -0.8129256715936881
2.61E9                   -0.4119907121806862      -0.7778166013907243
2.64E9                   -0.4816990779628794      -0.7361281228936267
2.67E9                   -0.5471907951946763      -0.6882324562690181
2.7E9                    -0.6079124917242         -0.6345571636121186
2.73E9                   -0.6633560074817018      -0.5755797018150831
2.76E9                   -0.7130625339681327      -0.5118218924971265
2.79E9                   -0.7566260115377654      -0.4438443960065647
2.82E9                   -0.7936959434975833      -0.3722411863914031
2.85E9                   -0.823979708137159       -0.2976340007372393
2.88E9                   -0.8472444007409439      -0.22066674194114927
2.91E9                   -0.8633182109322002      -0.14199982910011555
2.94E9                   -0.8720913287588762      -0.06230450508269432
2.97E9                   -0.8735163697472311      0.017742876731406534
3.0E9                    -0.8676083106495773      0.09746655510216759
3.03E9                   -0.8544439317703347      0.17619701542040012
3.06E9                   -0.8341607671912009      0.25327655459884524
3.09E9                   -0.806955570201668       0.3280647133884056
3.12E9                   -0.7730823073373627      0.399943533341818
3.15E9                   -0.7328497000009906      0.46832259790106967
3.18E9                   -0.6866183372473048      0.5326438205715793
3.21E9                   -0.6347973861906404      0.5923859479970582
3.24E9                   -0.5778409272771076      0.647068750777933
3.27E9                   -0.5162439401516757      0.6962568791043461
3.3E9                    -0.45053796236778587     0.7395633626236078
3.33E9                   -0.3812864389773618      0.7766527330039219
3.36E9                   -0.30907977732121455     0.8072437432427908
3.39E9                   -0.23453012055862585     0.8311116494376636
3.42E9                   -0.15826585730046344     0.8480900099452525
3.45E9                   -0.08092589526735577     0.8580719453739101
3.48E9                   -0.0031537452467558682   0.8610107939772305
3.51E9                   0.0744085127018888       0.8569200949733239
3.54E9                   0.1511262784063689       0.8458728414849777
3.57E9                   0.22637836412017676      0.8279999685142645
3.6E9                    0.29956265723411024      0.8034880796881283
3.63E9                   0.370101354413225        0.7725764650591119
3.66E9                   0.4374456230677408       0.7355535125476863
3.69E9                   0.5010795790715313       0.6927526581856887
3.72E9                   0.5605235148887516       0.6445480491511552
3.75E9                   0.6153363634138949       0.5913501078365041
3.78E9                   0.6651174367684028       0.5336011875693386
3.81E9                   0.7095075390068217       0.4717714998880503
3.84E9                   0.7481896170727265       0.40635546152846297
3.87E9                   0.7808891760097549       0.337868543848614
3.9E9                    0.8073747185120251       0.2668446045617546
3.93E9                   0.8274584482511458       0.19383355681177633
3.96E9                   0.8409973871774391       0.11939912048367095
3.99E9                   0.8478949137319298       0.04411634731048963
4.02E9                   0.8481025727198432       -0.031431359112231
4.05E9                   0.8416218885841439       -0.10665590070865161
4.08E9                   0.828505867600121        -0.18096884323324497
4.11E9                   0.8088599080836943       -0.2537863550204933
4.14E9                   0.7828419309972237       -0.32453450522055804
4.17E9                   0.7506616618528839       -0.39265466202073723
4.2E9                    0.7125791044767322       -0.4576087516600238
4.23E9                   0.6689023239410471       -0.5188842007866418
4.26E9                   0.6199846892851909       -0.575998463804268
4.29E9                   0.5662217187281454       -0.6285031103567981
4.32E9                   0.5080476331066012       -0.6759874986263892
4.35E9                   0.44593167470431094      -0.7180820800031689
4.38E9                   0.38037420602782146      -0.7544613720209241
4.41E9                   0.31190257813031014      -0.7848466099628839
4.44E9                   0.241066754820295        -0.809008056181037
4.47E9                   0.16843469332921224      -0.8267669217314654
4.5E9                    0.09458750639800187      -0.8379968431780678
4.53E9                   0.02011445718468039      -0.8426248597100351
4.56E9                   -0.05439213884618628     -0.8406318500206864
4.59E9                   -0.12834201590679478     -0.8320524118280019
4.62E9                   -0.20115197040392224     -0.816974196000148
4.65E9                   -0.2722507000821581      -0.7955367373088568
4.68E9                   -0.3410834096330237      -0.7679298477397005
4.71E9                   -0.4071161573233438      -0.7343916475906711
4.74E9                   -0.4698399530771255      -0.6952062979831353
4.77E9                   -0.528774642057601       -0.6507014666148296
4.8E9                    -0.5834726070210624      -0.6012455170303737
4.83E9                   -0.6335222948134617      -0.5472443774418532
4.86E9                   -0.678551526104282       -0.48913803436644754
4.89E9                   -0.7182305003247905      -0.42739661611446667
4.92E9                   -0.7522743774138414      -0.3625160768047072
4.95E9                   -0.7804453156050517      -0.2950135496819217
4.98E9                   -0.8025538721205697      -0.22542249325306996
5.01E9                   -0.8184597262028075      -0.1542877913715343
5.04E9                   -0.8280717516100178      -0.08216097884912671
5.07E9                   -0.8313475352382954      -0.009595741156508944
5.1E9                    -0.8282924928382356      0.06285622017787118
5.13E9                   -0.8189587529439541      0.13464894719840043
5.16E9                   -0.8034439517805705      0.2052456870020074
5.19E9                   -0.7818900055427973      0.27412219045099767
5.22E9                   -0.754481825554757       0.3407699849536571
5.25E9                   -0.7214458590192502      0.40469969404377243
5.28E9                   -0.6830483157362224      0.46544437095489466
5.31E9                   -0.6395929951824239      0.5225627173783755
5.34E9                   -0.5914187340716637      0.5756420222619564
5.37E9                   -0.5388965983457079      0.6243006985223389
5.4E9                    -0.4824269940195552      0.6681903952351526
5.43E9                   -0.42243684721036506     0.7069977699671605
5.46E9                   -0.35937692130331667     0.7404460733232217
5.49E9                   -0.2937192371485193      0.7682967031382466
5.52E9                   -0.22595447889253206     0.7903508350944053
5.55E9                   -0.1565892265659608      0.8064511534031192
5.58E9                   -0.08614286175952515     0.816483616089529
5.61E9                   -0.015144038111073677    0.8203791146209272
5.64E9                   0.055873316973919174     0.8181148405098848
5.67E9                   0.1263744110323277       0.8097151619898307
5.7E9                    0.19582825478513863      0.795251850408004
5.73E9                   0.26371237090242555      0.7748435803982385
5.76E9                   0.3295173103336172       0.7486547445518337
5.79E9                   0.3927508011134487       0.7168937335175078
5.82E9                   0.45294146986143535      0.6798108876856455
5.85E9                   0.5096421997929829       0.6376962984214707
5.88E9                   0.5624332629917541       0.5908775404749795
5.91E9                   0.6109253595109142       0.5397173042105479
5.94E9                   0.654762626302346        0.48461082044315296
5.97E9                   0.6936255880553646       0.4259829562963769
6.0E9                    0.7272339497184555       0.36428489751913284
