% Model:              three_layers reality at 0.1mm.mph
% Version:            COMSOL 5.6.0.280
% Date:               Mar 2 2022, 15:08
% Table:              表格 1 - 全局计算 1
% freq (Hz)              real(emw.S11) (1)        imag(emw.S11) (1)
300000000                0.6011581644907228       -0.7304952573543846
330000000                0.5353468658650486       -0.7793295642292724
360000000                0.4656779411507138       -0.8223100795623133
390000000                0.3926597659561173       -0.8591294380545741
420000000                0.31682738846022823      -0.8895249907054424
450000000                0.2387380192647587       -0.9132809650710396
480000000                0.15896653239988456      -0.9302302382119297
510000000                0.07810094238339929      -0.9402557187134921
540000000                -0.003262150653238649    -0.9432913341423289
570000000                -0.08452213869445623     -0.9393226205068326
600000000                -0.16507898802612697     -0.9283869116509819
630000000                -0.24433780122095028     -0.91057312852244
660000000                -0.32171333162954635     -0.8860211703583044
690000000                -0.3966344194479066      -0.8549209126280509
720000000                -0.4685483191465407      -0.8175108188778716
750000000                -0.5369248857846185      -0.7740761769644254
780000000                -0.601260589385184       -0.7249469725986581
810000000                -0.6610823263305692      -0.670495416314768
840000000                -0.7159509984638524      -0.6111331424651073
870000000                -0.7654648314223316      -0.5473081019913699
900000000                -0.8092624060187789      -0.4795011730881424
930000000                -0.8470253786537354      -0.4082225160429416
960000000                -0.8784808686720389      -0.3340077014152245
990000000                -0.9034034937537814      -0.2574136420712813
1020000000               -0.9216170370698615      -0.1790143614292038
1050000000               -0.932995732847756       -0.09939663228442014
1080000000               -0.937465160558017       -0.01915552064760377
1110000000               -0.9350027408833622      0.06111012919404915
1140000000               -0.9256378302085321      0.14080223229560998
1170000000               -0.9094514137375912      0.21932798695544733
1200000000               -0.8865754006780707      0.29610434886794995
1230000000               -0.8571915284252468      0.3705624196365987
1260000000               -0.8215298857706831      0.44215171541261755
1290000000               -0.779867068474263       0.5103442818675911
1320000000               -0.7325239834053897      0.5746386237336338
1350000000               -0.6798633203722888      0.6345634186792332
1380000000               -0.6222867132197089      0.6896809875282278
1410000000               -0.5602316143636414      0.7395904948207637
1440000000               -0.49416790879195793     0.7839308565077493
1470000000               -0.42459429551936556     0.8223833340067497
1500000000               -0.3520344661371228      0.8546737965774632
1530000000               -0.27703311114151524     0.8805746370083893
1560000000               -0.20015178598948183     0.8999063283500114
1590000000               -0.1219646691936907      0.9125386125657546
1620000000               -0.043054245591481966    0.9183913147884498
1650000000               0.03599305236298953      0.9174347799640042
1680000000               0.11459121229673191      0.9096899314765072
1710000000               0.1921589859855896       0.8952279542339282
1740000000               0.2681241780692661       0.8741696074185907
1770000000               0.3419278481122307       0.846684174778623
1800000000               0.4130283961675444       0.8129880628066346
1830000000               0.480905502905113        0.7733430595920292
1860000000               0.5450638969882878       0.728054269313666
1890000000               0.6050369238033447       0.6774677394731432
1920000000               0.6603898913857003       0.6219677998926324
1950000000               0.710723171299732        0.5619741341739773
1980000000               0.7556750339671965       0.49793860607504564
2010000000               0.794924200243571        0.4303418644520733
2040000000               0.8281920929736825       0.35968975182678803
2070000000               0.8552447747155032       0.2865095423282737
2100000000               0.8758945599120104       0.21134603568600704
2130000000               0.8900012922029799       0.1347575340007313
2.16E9                   0.8974732795012198       0.057311728002723106
2.19E9                   0.8982678809536865       -0.020418481189531816
2.22E9                   0.8923917402595074       -0.09785919920188196
2.25E9                   0.8799006588427454       -0.17443976842530826
2.28E9                   0.8608991003901281       -0.24959698217536333
2.31E9                   0.8355393179198686       -0.3227792461476876
2.34E9                   0.804020101081322        -0.3934506393231363
2.37E9                   0.7665851595684061       -0.46109481839175387
2.4E9                    0.7235211848235651       -0.5252187174878806
2.43E9                   0.6751556479771623       -0.5853560257040394
2.46E9                   0.6218543777724413       -0.6410704608675396
2.49E9                   0.5640189217571979       -0.691958869674121
2.52E9                   0.5020836616245216       -0.7376541573352953
2.55E9                   0.4365126559022894       -0.7778280099790784
2.58E9                   0.36779621380985045      -0.8121933520863185
2.61E9                   0.2964472338766772       -0.8405064889431904
2.64E9                   0.22299735425286527      -0.8625689041723416
2.67E9                   0.1479929600685111       -0.878228699581838
2.7E9                    0.07199108624916928      -0.8873816732995494
2.73E9                   -0.004444751050779949    -0.8899720347090487
2.76E9                   -0.08074876436516264     -0.8859927551372473
2.79E9                   -0.15635711636239727     -0.8754855535309599
2.82E9                   -0.23071212287059917     -0.8585405175310176
2.85E9                   -0.30326640685794976     -0.8352953622551018
2.88E9                   -0.37348697237599926     -0.8059343315504185
2.91E9                   -0.4408591675885054      -0.7706867492148772
2.94E9                   -0.504890506412236       -0.7298252305089891
2.97E9                   -0.5651143190214898      -0.6836635671833268
3.0E9                    -0.6210932027514613      -0.632554301970831
3.03E9                   -0.6724222462265952      -0.5768860112725213
3.06E9                   -0.7187320015115066      -0.5170803171434799
3.09E9                   -0.7596911808726436      -0.45358865221749856
3.12E9                   -0.7950090572364903      -0.3868888031265427
3.15E9                   -0.824437549738724       -0.31748126003615446
3.18E9                   -0.8477729785187762      -0.2458854014663072
3.21E9                   -0.864857475770585       -0.17263554478059503
3.24E9                   -0.875580042886896       -0.09827689388205252
3.27E9                   -0.8798772465684088      -0.023361416261814684
3.3E9                    -0.8777335497402659      0.051556317961735265
3.33E9                   -0.8691812760918302      0.12592330250958664
3.36E9                   -0.8543002099273865      0.1991922341750285
3.39E9                   -0.833216835916598       0.27082559271967654
3.42E9                   -0.806103226085665       0.3402996298469749
3.45E9                   -0.7731755842032597      0.4071082362442045
3.48E9                   -0.7346924604024052      0.47076665687322755
3.51E9                   -0.6909526516976814      0.5308150256559525
3.54E9                   -0.6422928067504368      0.5868216923006376
3.57E9                   -0.5890847560156158      0.6383863157596674
3.6E9                    -0.5317325908604275      0.6851427012006847
3.63E9                   -0.4706695176137342      0.7267613599307764
3.66E9                   -0.4063545142470142      0.7629517748528767
3.69E9                   -0.3392688186983742      0.7934643572436846
3.72E9                   -0.2699122785886262      0.818092083902977
3.75E9                   -0.19879959251831975     0.8366718068829915
3.78E9                   -0.12645647299660362     0.8490852311989869
3.81E9                   -0.05341576080200188     0.8552595589695029
3.84E9                   0.019786480483114134     0.8551678014919455
3.87E9                   0.09261486244770528      0.8488287634076027
3.9E9                    0.1645385370842604       0.8363067050778604
3.93E9                   0.2350350062191037       0.8177106902456913
3.96E9                   0.30359385334777617      0.7931936261327162
3.99E9                   0.3697203767868784       0.7629510028089395
4.02E9                   0.43293910231839483      0.7272193387042631
4.05E9                   0.49279715218647946      0.6862743402487962
4.08E9                   0.5488674463396525       0.6404287858184051
4.11E9                   0.6007517112647399       0.5900301474738013
4.14E9                   0.6480832727051677       0.5354579675715134
4.17E9                   0.6905296105408354       0.47712101071115165
4.2E9                    0.7277946570626693       0.41545421403934857
4.23E9                   0.7596208231017916       0.35091546064802065
4.26E9                   0.7857907397725644       0.28398220145393915
4.29E9                   0.8061287064471689       0.21514795079879093
4.32E9                   0.8205018376734448       0.14491868080050146
4.35E9                   0.8288209035020391       0.0738091388919394
4.38E9                   0.8310408588745727       0.0023391129786181327
4.41E9                   0.82716105896613         -0.06897033118773753
4.44E9                   0.8172251587419833       -0.13960061523254969
4.47E9                   0.8013206967248039       -0.2090393903123237
4.5E9                    0.779578365035614        -0.27678422990104457
4.53E9                   0.752170970129275        -0.34234624680749065
4.56E9                   0.7193120911698401       -0.40525360810679595
4.59E9                   0.6812544455466526       -0.46505492227858825
4.62E9                   0.6382879736002096       -0.5213224737117895
4.65E9                   0.590737656866807        -0.5736552812925355
4.68E9                   0.5389610861920915       -0.6216819593539621
4.71E9                   0.48334579748351914      -0.6650633612526327
4.74E9                   0.4243063939266531       -0.7034949875399659
4.77E9                   0.3622814742837722       -0.7367091420801818
4.8E9                    0.2977303876810135       -0.7644768205115144
4.83E9                   0.23112983654821218      -0.7866093161960421
4.86E9                   0.16297035126896536      -0.802959529709792
4.89E9                   0.09375266210231424      -0.8134229695283346
4.92E9                   0.023983996297625865     -0.8179384338140626
4.95E9                   -0.0458256698979433      -0.8164883663516118
4.98E9                   -0.115167373605623       -0.8090988833630771
5.01E9                   -0.18353691100013148     -0.7958394718395336
5.04E9                   -0.25043853616749345     -0.7768223638446212
5.07E9                   -0.3153885843728097      -0.7522015945984205
5.1E9                    -0.377918993381609       -0.72217175468056
5.13E9                   -0.4375806985238366      -0.6869664482919725
5.16E9                   -0.4939468793265193      -0.6468564700761497
5.19E9                   -0.5466160362223199      -0.6021477132147055
5.22E9                   -0.5952148757880522      -0.5531788219506709
5.25E9                   -0.6394009820015761      -0.5003186034475217
5.28E9                   -0.6788652506525628      -0.4439632170998715
5.31E9                   -0.7133340651892239      -0.38453316357971523
5.34E9                   -0.7425711953286935      -0.3224701000026989
5.37E9                   -0.7663794044991127      -0.2582335100219428
5.4E9                    -0.7846017570795114      -0.1922972581427398
5.43E9                   -0.7971226204138603      -0.1251460563643891
5.46E9                   -0.8038683590820593      -0.05727186929880788
5.49E9                   -0.8048077199895464      0.010829717630778677
5.52E9                   -0.7999519072242534      0.07866314300212834
5.55E9                   -0.7893543459996284      0.14573650284086567
5.58E9                   -0.7731101359252934      0.21156514745385435
5.61E9                   -0.7513551955548152      0.27567521477880086
5.64E9                   -0.7242651027449745      0.3376070722925437
5.67E9                   -0.6920536388874239      0.39691863842189745
5.7E9                    -0.6549710493661856      0.4531885546180281
5.73E9                   -0.6133020373257048      0.5060191806488455
5.76E9                   -0.5673635121054916      0.5550393890008906
5.79E9                   -0.5175021164147707      0.5999071390302222
5.82E9                   -0.46409155683857756     0.6403118164437794
5.85E9                   -0.40752976073513847     0.6759763276027245
5.88E9                   -0.3482358804969654      0.7066589397988609
5.91E9                   -0.2866471648291645      0.7321548586681135
5.94E9                   -0.2232157171259054      0.7522975332478412
5.97E9                   -0.15840516281382852     0.766959679279057
6.0E9                    -0.09268724974660891     0.7760540127050101
