% Model:              three_layers reality at 0.1mm.mph
% Version:            COMSOL 5.6.0.280
% Date:               Mar 7 2022, 11:42
% Table:              表格 1 - 全局计算 1
% freq (Hz)              real(emw.S11) (1)        imag(emw.S11) (1)
300000000                0.48814473521603524      -0.7847498855870021
330000000                0.4082465700284303       -0.825973555337337
360000000                0.32514582280715154      -0.8592851455906075
390000000                0.23957830494703014      -0.8844418716363812
420000000                0.15230668085241295      -0.901267538401469
450000000                0.06411218913867778      -0.9096565302170112
480000000                -0.02421357704406848     -0.9095763955345598
510000000                -0.11187680173737587     -0.9010692368699774
540000000                -0.19808944911056497     -0.884252044992281
570000000                -0.2820770882373555      -0.8593160756999692
600000000                -0.3630864839354955      -0.8265253450737235
630000000                -0.4403928968504886      -0.7862143069043595
660000000                -0.5133070334339974      -0.7387847707603479
690000000                -0.5811815890503967      -0.6847021171148419
720000000                -0.6434173287204801      -0.624490866783939
750000000                -0.6994686537637933      -0.5587296636071842
780000000                -0.748848606907802       -0.48804573202339596
810000000                -0.7911332733659147      -0.41310887382013733
840000000                -0.8259655413229545      -0.3346250709973605
870000000                -0.8530581912928906      -0.2533297640339968
900000000                -0.8721962905124118      -0.1699808769023261
930000000                -0.8832388755632876      -0.0853516611246972
960000000                -0.88611991335007        -2.2343237764597393E-4
990000000                -0.8808485379382271      0.08462172733115536
1020000000               -0.8675085678355041      0.16840822910153785
1050000000               -0.8462573154758175      0.2503741271907626
1080000000               -0.8173237074936698      0.32977809039265016
1110000000               -0.7810057410877453      0.40590612841468365
1140000000               -0.7376673079746872      0.4780780102611978
1170000000               -0.6877344233796636      0.545653315539865
1200000000               -0.6316909027688649      0.6080370642733102
1230000000               -0.5700735340310027      0.6646848756267053
1260000000               -0.5034667969102962      0.7151076115141077
1290000000               -0.4324971852685054      0.7588754667192288
1320000000               -0.3578271906962678      0.7956214732507066
1350000000               -0.280149008334212       0.8250443928743361
1380000000               -0.20017802755484482     0.8469109780881614
1410000000               -0.11864617092212289     0.8610575883273394
1440000000               -0.03629514562478349     0.8673911544459072
1470000000               0.046130329254005176     0.8658894910143071
1500000000               0.12788925657819536      0.8566009620138048
1530000000               0.20825099497374283      0.8396435115831182
1560000000               0.2865017333491382       0.8152030772007726
1590000000               0.3619507494251609       0.7835314080904918
1620000000               0.43393639853048854      0.7449433168130039
1650000000               0.5018317826636886       0.6998133966687492
1680000000               0.5650500533468421       0.6485722419754031
1710000000               0.6230493063421729       0.5917022121688796
1740000000               0.6753370308322215       0.5297327841113438
1770000000               0.7214740804183031       0.4632355402281701
1800000000               0.7610781388636831       0.39281884238883
1830000000               0.793826658817649        0.31912224375560244
1860000000               0.8194592579083602       0.24281069209470535
1890000000               0.8377795629145194       0.16456857896015997
1920000000               0.848656499741352        0.08509368895303561
1950000000               0.8520250344267986       0.0050911018405993555
1980000000               0.8478863786006201       -0.07473290274071002
2010000000               0.8363076814487919       -0.15367689470781978
2040000000               0.8174212384788717       -0.23105026387492328
2070000000               0.7914232534749414       -0.3061790949420751
2100000000               0.7585721896978793       -0.37841195596488386
2130000000               0.7191867317358007       -0.44712564363873925
2.16E9                   0.6736433371160203       -0.5117309684564628
2.19E9                   0.6223732692359167       -0.5716786909143846
2.22E9                   0.5658588574128764       -0.6264656956899499
2.25E9                   0.504628545060652        -0.6756413410493132
2.28E9                   0.4392501652835492       -0.7188135613064172
2.31E9                   0.370322052430339        -0.755653730725442
2.34E9                   0.2984623384867476       -0.7858987798868413
2.37E9                   0.22429809187730534      -0.809349212118028
2.4E9                    0.1484570862556808       -0.825863099984643
2.43E9                   0.07156459981658579      -0.8353484802545866
2.46E9                   -0.005754816855466061    -0.8377580263158766
2.49E9                   -0.08287364989484908     -0.8330887443431003
2.52E9                   -0.1591598117608875      -0.8213863126388624
2.55E9                   -0.23397935003020348     -0.8027511614257424
2.58E9                   -0.306703051887253       -0.7773432029542866
2.61E9                   -0.37671500913904943     -0.7453836404313721
2.64E9                   -0.4434212583496356      -0.7071538908424828
2.67E9                   -0.5062574209749756      -0.6629924552873854
2.7E9                    -0.5646950344128724      -0.6132906274814083
2.73E9                   -0.6182466859584466      -0.5584876615478583
2.76E9                   -0.6664701899921679      -0.49906573021507833
2.79E9                   -0.7089720262624095      -0.4355448084672575
2.82E9                   -0.7454101890860553      -0.3684775169863292
2.85E9                   -0.7754965331853271      -0.2984439217861054
2.88E9                   -0.7989986566445026      -0.22604628080124678
2.91E9                   -0.8157413342953538      -0.15190373581244346
2.94E9                   -0.8256075009552192      -0.07664695909034247
2.97E9                   -0.8285387785236248      -9.127745261436603E-4
3.0E9                    -0.824535540623265       0.0746612186542106
3.03E9                   -0.8136565111525755      0.14944198552883317
3.06E9                   -0.7960178974076385      0.22280632035425035
3.09E9                   -0.7717920636715182      0.29414599665592894
3.12E9                   -0.7412057566637186      0.36287276226839454
3.15E9                   -0.7045378995426494      0.4284231405966872
3.18E9                   -0.6621169756052246      0.4902630024242039
3.21E9                   -0.6143180258606729      0.5478918767613644
3.24E9                   -0.5615592857740687      0.6008469737631902
3.27E9                   -0.5042984854843445      0.6487068967762328
3.3E9                    -0.44302883514870733     0.6910950226820001
3.33E9                   -0.37827471352866787     0.7276825293315268
3.36E9                   -0.3105870752243835      0.7581910450147266
3.39E9                   -0.24053859151660745     0.7823948882085272
3.42E9                   -0.16871854374151418     0.800122856896694
3.45E9                   -0.09572749764423244     0.8112595177967608
3.48E9                   -0.022171803083411847    0.8157459394862896
3.51E9                   0.05134201500000373      0.8135798132337112
3.54E9                   0.12421288379906184      0.804814914661063
3.57E9                   0.19585071463138776      0.7895598803811795
3.6E9                    0.26568171127136647      0.7679763057515054
3.63E9                   0.3331533242806323       0.7402762085798863
3.66E9                   0.39773873486217703      0.7067189418319645
3.69E9                   0.4589407785614887       0.6676076687634617
3.72E9                   0.5162952528831867       0.6232855327257805
3.75E9                   0.5693735877042203       0.574131662608405
3.78E9                   0.617784892095699        0.5205571577208962
3.81E9                   0.6611774297860535       0.46300119439177173
3.84E9                   0.6992396227219331       0.4019273843296713
3.87E9                   0.7317007341678412       0.3378204801111293
3.9E9                    0.7583314241320797       0.27118345681604744
3.93E9                   0.7789443769330966       0.20253490618339762
3.96E9                   0.7933951559924428       0.13240658366303604
3.99E9                   0.8015833455616346       0.06134088315089679
4.02E9                   0.8034539174107267       -0.010111993533561833
4.05E9                   0.7989986501279649       -0.08139734796442605
4.08E9                   0.7882573640199162       -0.1519598481176764
4.11E9                   0.7713187319551708       -0.22124789527082164
4.14E9                   0.748320480077431        -0.28871834875373337
4.17E9                   0.7194488800414747       -0.3538414076450112
4.2E9                    0.6849375282959578       -0.4161054434360716
4.23E9                   0.6450654838524099       -0.47502161403350374
4.26E9                   0.6001548789608834       -0.5301281499723569
4.29E9                   0.5505681237769456       -0.5809942675990795
4.32E9                   0.4967048032571526       -0.6272237136686766
4.35E9                   0.4389983262229885       -0.6684579707654189
4.38E9                   0.3779123487441773       -0.704379152116908
4.41E9                   0.31393696919894193      -0.7347125949932298
4.44E9                   0.24758468588983684      -0.7592291355480016
4.47E9                   0.17938611822180786      -0.7777470253556478
4.5E9                    0.10988551309870812      -0.7901334377285377
4.53E9                   0.039636081933588946     -0.7963055123332499
4.56E9                   -0.030804764831727206    -0.7962308983214057
4.59E9                   -0.10088020411584893     -0.789927776804757
4.62E9                   -0.170038720739063       -0.7774643697423441
4.65E9                   -0.23773868239695553     -0.7589579698931259
4.68E9                   -0.30345270936213775     -0.7345735492010014
4.71E9                   -0.36667180936885774     -0.7045220133440706
4.74E9                   -0.42690928028970776     -0.6690581625451886
4.77E9                   -0.4837044058983117      -0.6284783931514041
4.8E9                    -0.5366259724102496      -0.5831181394536092
4.83E9                   -0.5852756128226115      -0.5333490248937589
4.86E9                   -0.6292909488442487      -0.4795756803059919
4.89E9                   -0.6683484611365824      -0.4222322005207061
4.92E9                   -0.7021659923119956      -0.36177824629044075
4.95E9                   -0.7305047834899724      -0.2986948448633724
4.98E9                   -0.7531709656983017      -0.23347998684918692
5.01E9                   -0.7700164679316952      -0.16664414783424542
5.04E9                   -0.7809393561339291      -0.09870587306269911
5.07E9                   -0.7858836715940553      -0.030187547807814425
5.1E9                    -0.7848388807015132      0.03838856545867088
5.13E9                   -0.7778390667825164      0.1065040034929675
5.16E9                   -0.7649619775618606      0.17364753902409702
5.19E9                   -0.7463279875667773      0.23931847272547874
5.22E9                   -0.7220989589451725      0.30302988250460355
5.25E9                   -0.6924769175840981      0.36431188911879375
5.28E9                   -0.6577024371571065      0.4227149187916209
5.31E9                   -0.6180526574335578      0.4778128664346579
5.34E9                   -0.5738389406573211      0.5292060264641221
5.37E9                   -0.5254042527690622      0.5765236812483355
5.4E9                    -0.4731204046352157      0.6194263075717108
5.43E9                   -0.4173852820807691      0.6576074445795027
5.46E9                   -0.35862014001060205     0.6907953263637018
5.49E9                   -0.2972669613430677      0.7187543984999496
5.52E9                   -0.23378581437723361     0.7412868110043669
5.55E9                   -0.16865210177510248     0.7582339248041305
5.58E9                   -0.10235358711208918     0.7694778033566708
5.61E9                   -0.03538710884819434     0.7749426008786481
5.64E9                   0.031745059184016176     0.7745957149565118
5.67E9                   0.09853917476177916      0.7684485534150554
5.7E9                    0.1644942224989368       0.7565567819581616
5.73E9                   0.22911617768111903      0.7390199746418094
5.76E9                   0.2919221556662532       0.7159806751511425
5.79E9                   0.35244429492329027      0.6876229659103871
5.82E9                   0.41023330187016094      0.6541706963014728
5.85E9                   0.46486168087653224      0.6158855142871951
5.88E9                   0.5159267386429208       0.5730647826376706
5.91E9                   0.5630534607157269       0.5260393771632645
5.94E9                   0.6058973150097196       0.4751713013102463
5.97E9                   0.6441469720227396       0.4208510320527247
6.0E9                    0.6775268752300712       0.36349453265849196
