% Model:              three_layers reality at 0.1mm.mph
% Version:            COMSOL 5.6.0.280
% Date:               Mar 7 2022, 11:55
% Table:              表格 1 - 全局计算 1
% freq (Hz)              real(emw.S11) (1)        imag(emw.S11) (1)
300000000                0.49686605751245577      -0.7892161128987278
330000000                0.4166462011365457       -0.8316938340153563
360000000                0.3330253768985914       -0.8662074293574508
390000000                0.2467567697516577       -0.8924867622396969
420000000                0.15862201745887267      -0.9103326131758692
450000000                0.0694225189337752       -0.9196201831215481
480000000                -0.020029105578441175    -0.9203013290353573
510000000                -0.10891741749834605     -0.9124056977302191
540000000                -0.19643240833071102     -0.8960408644066304
570000000                -0.281777555818961       -0.8713915508976359
600000000                -0.36417763897121597     -0.8387179826872088
630000000                -0.44288625601721937     -0.7983534367887218
660000000                -0.5171929868735221      -0.7507010305852932
690000000                -0.5864301415344217      -0.6962298026068539
720000000                -0.6499790373383922      -0.635470138804275
750000000                -0.707275751080331       -0.5690086014485324
780000000                -0.75781629655561        -0.4974822210480375
810000000                -0.8011611827533573      -0.4215723158149173
840000000                -0.8369393143393963      -0.3419979061844649
870000000                -0.8648512022733178      -0.2595087947249752
900000000                -0.8846714592108939      -0.17487838450071236
930000000                -0.8962505618756593      -0.08889631001677234
960000000                -0.8995158697154383      -0.0023609562615578366
990000000                -0.8944718969022738      0.08392805882010063
1020000000               -0.8811998420860562      0.1691773633729079
1050000000               -0.8598563878205177      0.25260719882959976
1080000000               -0.8306717887345414      0.333458603667081
1110000000               -0.793947274443509       0.41100034518292683
1140000000               -0.7500517997323407      0.48453553415084505
1170000000               -0.6994181806644694      0.5534078613027245
1200000000               -0.6425386608035271      0.6170073993742817
1230000000               -0.5799599568732651      0.6747759194477628
1260000000               -0.5122778374335812      0.7262116762430653
1290000000               -0.4401312921295275      0.7708736226590602
1320000000               -0.36419635199298145     0.8083850203999383
1350000000               -0.28517962375810674     0.8384364198748898
1380000000               -0.20381160299481282     0.8607879891131642
1410000000               -0.12083983159461482     0.8752711782868281
1440000000               -0.03702196580276702     0.8817897128341411
1470000000               0.04688117952639264      0.8803199149061062
1500000000               0.13011254565157168      0.870910359183017
1530000000               0.2119256406089873       0.8536808753019675
1560000000               0.2915911844431262       0.8288209150716153
1590000000               0.3684035311110078       0.7965873082394677
1620000000               0.44168681151346406      0.757301435850152
1650000000               0.5108007463187401       0.7113458550863714
1680000000               0.5751460810790221       0.6591604139350026
1710000000               0.6341696005664379       0.6012378980290564
1740000000               0.6873686841172572       0.5381192555511339
1770000000               0.7342953688286432       0.4703884491481306
1800000000               0.774559892883476        0.39866698636314496
1830000000               0.8078336971100026       0.3236081820437018
1860000000               0.8338518689359322       0.24589120759898472
1890000000               0.8524150194652951       0.16621498257708986
1920000000               0.8633905914401208       0.08529196362646935
1950000000               0.8667136032872804       0.003841884321018168
1980000000               0.8623868424705023       -0.07741450434334801
2010000000               0.8504805294836605       -0.15776164955385205
2040000000               0.8311314811622318       -0.23649533566252906
2070000000               0.8045418065864358       -0.31292873097976037
2100000000               0.7709771661954321       -0.3863983508960456
2130000000               0.730764606995649        -0.45626997842293626
2.16E9                   0.6842899411247629       -0.5219446175878295
2.19E9                   0.6319945458005525       -0.582864573500791
2.22E9                   0.5743713213618247       -0.6385197132467094
2.25E9                   0.5119593772100295       -0.6884537935934998
2.28E9                   0.4453369334160705       -0.7322703718196988
2.31E9                   0.375112155314441        -0.7696372683323713
2.34E9                   0.30191243051885625      -0.8002881152806772
2.37E9                   0.22637388337520595      -0.8240198232369528
2.4E9                    0.14913389024082271      -0.8406863483459365
2.43E9                   0.07082871409758855      -0.8501914290773045
2.46E9                   -0.00790424069048079     -0.8524841405169984
2.49E9                   -0.08642289712318761     -0.8475596456015628
2.52E9                   -0.164079634968412       -0.8354642961626753
2.55E9                   -0.24022496498634097     -0.8163019305440904
2.58E9                   -0.3142149594110336      -0.7902383424739993
2.61E9                   -0.38542032701437007     -0.7575025870066998
2.64E9                   -0.4532352632933505      -0.7183853800780584
2.67E9                   -0.5170851068000043      -0.6732355432920129
2.7E9                    -0.5764325986912303      -0.6224554095728355
2.73E9                   -0.6307829267134978      -0.5664957874581662
2.76E9                   -0.6796878260842227      -0.505850779811005
2.79E9                   -0.7227489636002837      -0.4410525620303283
2.82E9                   -0.7596207516760385      -0.37266613420813866
2.85E9                   -0.7900126710518525      -0.301284032566073
2.88E9                   -0.8136911356788578      -0.22752098583911723
2.91E9                   -0.8304809073927674      -0.15200851365738127
2.94E9                   -0.8402660557815435      -0.07538947685412885
2.97E9                   -0.8429904546324107      0.0016873989425338336
3.0E9                    -0.8386578072392873      0.07857299650162114
3.03E9                   -0.8273311963379698      0.15462324098784636
3.06E9                   -0.8091321594118984      0.22920445494646927
3.09E9                   -0.7842392957181291      0.3016985928689854
3.12E9                   -0.7528864171495291      0.3715083138698747
3.15E9                   -0.7153602603633635      0.43806185303408474
3.18E9                   -0.671997782074632       0.5008176549595565
3.21E9                   -0.6231830622281862      0.5592687375429682
3.24E9                   -0.5693438407913589      0.6129467583313318
3.27E9                   -0.5109477128721285      0.6614257595282513
3.3E9                    -0.4484980043373705      0.7043255696069282
3.33E9                   -0.38252934704883335     0.7413148385853654
3.36E9                   -0.31360297074456983     0.7721136800893987
3.39E9                   -0.24230172914587023     0.7964958865867624
3.42E9                   -0.1692248828859409      0.8142906757570328
3.45E9                   -0.09498267226978215     0.8253839180356453
3.48E9                   -0.02019072960106634     0.8297187905023917
3.51E9                   0.05453559765365484      0.8272958041252587
3.54E9                   0.12858691771493405      0.8181721628290939
3.57E9                   0.2013653429784874       0.8024604358140787
3.6E9                    0.27228978742850635      0.7803265577968039
3.63E9                   0.3408008853332632       0.7519872106956865
3.66E9                   0.4063654204354551       0.7177066774334565
3.69E9                   0.46848018399291735      0.6777932868841899
3.72E9                   0.5266752152793149       0.6325955853824327
3.75E9                   0.5805164140325829       0.5824983762798249
3.78E9                   0.6296075496906234       0.5279187691492137
3.81E9                   0.673591731642858        0.46930237485319914
3.84E9                   0.7121524510232654       0.40711976552619067
3.87E9                   0.745014353336628        0.34186327773135616
3.9E9                    0.7719439351174948       0.2740441659338448
3.93E9                   0.792750354375016        0.20419001969484382
3.96E9                   0.8072864885994222       0.13284226725657858
3.99E9                   0.8154502711268787       0.060553533598633996
4.02E9                   0.8171862140306634       -0.0121153721156163
4.05E9                   0.8124869222796097       -0.0845989945659793
4.08E9                   0.8013943516435393       -0.15633133832404306
4.11E9                   0.7840005741652473       -0.22675046583217157
4.14E9                   0.7604478798430343       -0.2953034195049966
4.17E9                   0.730928136757926        -0.3614512556453786
4.2E9                    0.6956814256908971       -0.42467398341966434
4.23E9                   0.6549940364113382       -0.48447524668705244
4.26E9                   0.6091959487319344       -0.5403866508539198
4.29E9                   0.5586579209942318       -0.5919717008177044
4.32E9                   0.5037882808752407       -0.638829362288681
4.35E9                   0.445029473009566        -0.6805972792942196
4.38E9                   0.3828543810155074       -0.7169546755189158
4.41E9                   0.3177624192370676       -0.7476249454040053
4.44E9                   0.25027538617855216      -0.7723779141168767
4.47E9                   0.18093308412033837      -0.791031724245812
4.5E9                    0.11028873119796999      -0.8034542971102998
4.53E9                   0.03890421583579826      -0.809564319354215
4.56E9                   -0.0326547363198614      -0.8093317190819068
4.59E9                   -0.10382340013041241     -0.8027776175615543
4.62E9                   -0.17404280760874544     -0.7899737688609014
4.65E9                   -0.2427643471707196      -0.7710415263977248
4.68E9                   -0.30945415070054944     -0.7461503959498148
4.71E9                   -0.3735972442953653      -0.7155162421289691
4.74E9                   -0.43470146931261744     -0.6793992047764372
4.77E9                   -0.49230120002312544     -0.6381013543897174
4.8E9                    -0.545960882989734       -0.5919640808481111
4.83E9                   -0.5952783994549615      -0.5413651819055516
4.86E9                   -0.6398882137703271      -0.4867156102906915
4.89E9                   -0.6794642330848908      -0.4284558559833377
4.92E9                   -0.713722280604711       -0.3670519785465515
4.95E9                   -0.7424220853830985      -0.3029913514184328
4.98E9                   -0.7653687162552386      -0.2367782227035014
5.01E9                   -0.7824134309911037      -0.16892922447348163
5.04E9                   -0.793453965380089       -0.09996896777007117
5.07E9                   -0.7984343400599829      -0.0304258399002105
5.1E9                    -0.7973443027481215      0.039171925137758634
5.13E9                   -0.790218536558729       0.1082998958411044
5.16E9                   -0.7771357413337313      0.1764408696817676
5.19E9                   -0.758217635517751       0.2430881775589148
5.22E9                   -0.733627849062136       0.3077489662215988
5.25E9                   -0.7035706153104527      0.36994750828451506
5.28E9                   -0.6682891536263645      0.42922850793315537
5.31E9                   -0.6280636767431004      0.48516029613057543
5.34E9                   -0.5832090387693055      0.5373377805443259
5.37E9                   -0.5340721209866937      0.5853850473410763
5.4E9                    -0.4810290937073598      0.6289575880693229
5.43E9                   -0.4244826769510627      0.6677442077173515
5.46E9                   -0.36485946220634047     0.7014687240580743
5.49E9                   -0.3026072805500988      0.7298915761188667
5.52E9                   -0.23819253798062745     0.7528114245927773
5.55E9                   -0.17209740452256508     0.7700667662784597
5.58E9                   -0.1048167443137837      0.7815375174947232
5.61E9                   -0.03685470535192952     0.787146463386077
5.64E9                   0.031279057279702725     0.7868604316789551
5.67E9                   0.09907348098887905      0.7806910392834365
5.7E9                    0.16602040223249795      0.7686948854991009
5.73E9                   0.23161889954891102      0.7509731286653167
5.76E9                   0.29537948872945047      0.7276704724511037
5.79E9                   0.3568280272173889       0.6989736741840484
5.82E9                   0.41550927155609796      0.6651097331319176
5.85E9                   0.470990126701485        0.6263438986727599
5.88E9                   0.5228626847464352       0.582977567247528
5.91E9                   0.5707471494344943       0.535346051599693
5.94E9                   0.6142946919904411       0.4838161473947847
5.97E9                   0.653190215657396        0.4287834103714039
6.0E9                    0.687154951747257        0.37066908472340776
