% Model:              three_layers reality at 0.1mm.mph
% Version:            COMSOL 5.6.0.280
% Date:               Feb 21 2022, 15:35
% Table:              表格 1 - 全局计算 1
% freq (Hz)              real(emw.S11) (1)        imag(emw.S11) (1)
300000000                0.6232223057398141       -0.7614608727753498
330000000                0.5537454528948301       -0.8136529234790896
360000000                0.4799571253077282       -0.8595118185851471
390000000                0.402433994530192        -0.89868308676669
420000000                0.32178176517339135      -0.9308646729245406
450000000                0.23863042133704565      -0.9558093181940506
480000000                0.1536292773807583       -0.9733265095028465
510000000                0.0674418699083418       -0.9832839830436619
540000000                -0.019259267492247822    -0.9856087680663537
570000000                -0.10579790679908606     -0.9802877617058301
600000000                -0.1914994633536125      -0.9673678285301345
630000000                -0.2756963250617019      -0.9469554225333113
660000000                -0.35773313146204305     -0.9192157329912821
690000000                -0.43697195827009205     -0.8843713597997223
720000000                -0.5127973661389222      -0.8427005274075365
750000000                -0.5846212707962017      -0.7945348510500326
780000000                -0.6518875949429694      -0.7402566722153338
810000000                -0.7140766624425628      -0.6802959846795552
840000000                -0.7707092982635537      -0.6151269756483236
870000000                -0.8213505994280415      -0.5452642103960597
900000000                -0.8656133454005085      -0.47125849163408323
930000000                -0.9031610189454498      -0.3936924283201646
960000000                -0.9337104122806213      -0.3131757508029503
990000000                -0.9570337967150316      -0.2303404118038376
1020000000               -0.9729606378931837      -0.1458355147253774
1050000000               -0.9813788429257516      -0.06032211189931036
1080000000               -0.9822355296835753      0.025532082635851768
1110000000               -0.9755373130692157      0.11105802180721405
1140000000               -0.9613501072069662      0.19559064991110509
1170000000               -0.9397984469723806      0.2784741785467906
1200000000               -0.9110643364987084      0.3590672696256272
1230000000               -0.8753856364458529      0.43674808264141574
1260000000               -0.8330540059569383      0.5109191443873129
1290000000               -0.7844124188554032      0.581012001785845
1320000000               -0.7298522774480205      0.6464916201441623
1350000000               -0.6698101503674212      0.7068604922506203
1380000000               -0.6047641641717011      0.7616624261542212
1410000000               -0.5352300808044991      0.8104859830109001
1440000000               -0.461757095536807       0.8529675394470323
1470000000               -0.384923391953884       0.888793952494704
1500000000               -0.30533149192221487     0.9177048089066917
1530000000               -0.22360344007332478     0.9394942441670602
1560000000               -0.14037586265340105     0.9540123205577553
1590000000               -0.05629494150611247     0.9611659571996838
1620000000               0.027988656311655015     0.960919408875966
1650000000               0.11182485279486053      0.9532942940513263
1680000000               0.1945691974009227       0.9383691761182317
1710000000               0.27558783067688497      0.9162787053362247
1740000000               0.3542623354326418       0.8872123322269229
1770000000               0.42999443907596024      0.8514126063520533
1800000000               0.5022105326974071       0.8091730772662387
1830000000               0.5703659740048073       0.760835817300545
1860000000               0.6339491437195974       0.7067885881881515
1890000000               0.6924852269025848       0.6474616760530061
1920000000               0.7455396934196483       0.5833244211794167
1950000000               0.7927214540811129       0.5148814709747148
1980000000               0.8336856717927962       0.44266878605187004
2010000000               0.8681362097612809       0.3672494307757835
2040000000               0.8958277017181125       0.2892091806674206
2070000000               0.9165672320812487       0.20915197977185593
2100000000               0.9302156169307239       0.12769528148273834
2130000000               0.9366882795656878       0.04546530607244939
2.16E9                   0.9359557168744677       -0.036907752423813396
2.19E9                   0.9280435544402433       -0.11879453864597972
2.22E9                   0.913032188478503        -0.1995713374670965
2.25E9                   0.8910560110055479       -0.2786248340658892
2.28E9                   0.8623022118422796       -0.3553567979682444
2.31E9                   0.8270091508194028       -0.4291886463004585
2.34E9                   0.7854643031541585       -0.49956582660003906
2.37E9                   0.7380018062482201       -0.5659619506672152
2.4E9                    0.6849996708033257       -0.627882624549419
2.43E9                   0.6268767374000245       -0.6848689629906103
2.46E9                   0.5640894353201372       -0.736500825260107
2.49E9                   0.49712834370219083      -0.7823998198594447
2.52E9                   0.42651451314724675      -0.8222320856389255
2.55E9                   0.3527955138392958       -0.8557108023334421
2.58E9                   0.27654121930432823      -0.882598359286615
2.61E9                   0.1983393740651801       -0.9027081247795259
2.64E9                   0.11879100793637268      -0.915905787144272
2.67E9                   0.03850575508664083      -0.9221102612952934
2.7E9                    -0.04190287470859318     -0.9212941648689527
2.73E9                   -0.12182223358278339     -0.9134838706540717
2.76E9                   -0.20064524671842127     -0.8987591417537047
2.79E9                   -0.27777506355067877     -0.877252355913511
2.82E9                   -0.35262961527751957     -0.8491473265487897
2.85E9                   -0.424646044935942       -0.8146777301028844
2.88E9                   -0.4932849765512834      -0.7741251520403489
2.91E9                   -0.5580345903482565      -0.727816766862821
2.94E9                   -0.6184144724358334      -0.6761226704842377
2.97E9                   -0.6739792087102212      -0.619452886408713
3.0E9                    -0.7243216948541253      -0.5582540699023308
3.03E9                   -0.769076136528371       -0.4930059370162474
3.06E9                   -0.8079207164142093      -0.4242174477317042
3.09E9                   -0.8405799076922069      -0.35242277450849047
3.12E9                   -0.8668264164876028      -0.27817708943773095
3.15E9                   -0.8864827391396454      -0.20205220452553507
3.18E9                   -0.8994223234323577      -0.12463210087976609
3.21E9                   -0.9055703264219641      -0.04650838320469658
3.24E9                   -0.9049039649337143      0.03172430358794084
3.27E9                   -0.8974524582265044      0.10947285884717971
3.3E9                    -0.8832965656790202      0.18615027519975025
3.33E9                   -0.8625677255689397      0.2611801163404874
3.36E9                   -0.8354468041207664      0.3340008884740911
3.39E9                   -0.802162466932186       0.4040702715880354
3.42E9                   -0.7629891877769261      0.47086917774569237
3.45E9                   -0.7182449125104928      0.5339056051573096
3.48E9                   -0.6682883985909828      0.5927182582389673
3.51E9                   -0.6135162534538295      0.64687990571974
3.54E9                   -0.5543596977512059      0.6960004509567742
3.57E9                   -0.4912810820895584      0.7397296912304
3.6E9                    -0.42477018842998576     0.777759745776176
3.63E9                   -0.35534034924820157     0.8098271359692255
3.66E9                   -0.28352441899835606     0.83571450494654
3.69E9                   -0.20987063311035606     0.855251968020088
3.72E9                   -0.13493838971896466     0.868318089223532
3.75E9                   -0.059293988873465334    0.8748404830573924
3.78E9                   0.016493637047078204     0.8747960440712582
3.81E9                   0.09185716928658644      0.868210810279964
3.84E9                   0.16623509473148204      0.8551594695161365
3.87E9                   0.2390758162698292       0.8357645202660176
3.9E9                    0.3098416568741346       0.8101950998969237
3.93E9                   0.3780127354014205       0.7786654932970366
3.96E9                   0.44309069384018757      0.7414333340685269
3.99E9                   0.5046022558312119       0.6987975094161674
4.02E9                   0.5621025950129216       0.6510957797728498
4.05E9                   0.6151784901090359       0.5987021255657738
4.08E9                   0.6634512422702777       0.5420238366253649
4.11E9                   0.7065793303403748       0.48149836378300875
4.14E9                   0.7442607814019802       0.417589956473404
4.17E9                   0.7762352371330352       0.3507861137910036
4.2E9                    0.8022857006328614       0.28159387887872944
4.23E9                   0.8222399527398707       0.2105360075455278
4.26E9                   0.8359716308618922       0.13814704197281713
4.29E9                   0.8434009666547887       0.06496931931341754
4.32E9                   0.8444951812264592       -0.00845105610783394
4.35E9                   0.8392685382269477       -0.08156824944662693
4.38E9                   0.8277820563777976       -0.15384071381008577
4.41E9                   0.810142884238358        -0.22473516362138654
4.44E9                   0.7865033415232138       -0.2937304757165855
4.47E9                   0.7570596332701641       -0.36032149066415486
4.5E9                    0.7220502455746995       -0.42402268672575644
4.53E9                   0.6817540342614014       -0.48437169923479884
4.56E9                   0.6364880207190358       -0.5409326588845079
4.59E9                   0.5866049118742452       -0.5932993238035257
4.62E9                   0.5324903638581505       -0.6410979821461944
4.65E9                   0.47456001113199026      -0.683990104182263
4.68E9                   0.41325628445831486      -0.7216747255391271
4.71E9                   0.34904504203334885      -0.7538905458805429
4.74E9                   0.2824120385100777       -0.7804177295870902
4.77E9                   0.21385925674542605      -0.801079396748241
4.8E9                    0.14390112748543002      -0.8157427938913986
4.83E9                   0.07306066321653529      -0.8243201347844771
4.86E9                   0.001865534063987795     -0.8267691029031892
4.89E9                   -0.06915588416005979     -0.8230930091919583
4.92E9                   -0.1394784578217351      -0.81334060191226
4.95E9                   -0.20858420598597968     -0.7976055293735757
4.98E9                   -0.27596614019031573     -0.7760254608818971
5.01E9                   -0.34113200120396797     -0.7487808758011614
5.04E9                   -0.4036078627291076      -0.7160935346673188
5.07E9                   -0.4629415751666488      -0.6782246494305788
5.1E9                    -0.5187060262136246      -0.635472771709088
5.13E9                   -0.5705021983389263      -0.5881714183729145
5.16E9                   -0.6179620055310919      -0.5366864531003022
5.19E9                   -0.6607508924199119      -0.4814132416393642
5.22E9                   -0.6985701781052853      -0.4227735985854342
5.25E9                   -0.7311591258886984      -0.3612125453299877
5.28E9                   -0.7582967198533574      -0.29719490282491784
5.31E9                   -0.7798031315403309      -0.23120174738025714
5.34E9                   -0.7955408646172285      -0.16372676156084728
5.37E9                   -0.8054155716024515      -0.09527251347883944
5.4E9                    -0.8093765423675878      -0.026346696450331643
5.43E9                   -0.8074168679888276      0.04254164224235841
5.46E9                   -0.7995732850416193      0.11088585802179417
5.49E9                   -0.785925705315086       0.17818542795946832
5.52E9                   -0.7665964352751633      0.2439496094384324
5.55E9                   -0.7417490893907815      0.30770101533339184
5.58E9                   -0.7115872022768011      0.3689790808848148
5.61E9                   -0.676352546668967       0.4273433958146468
5.64E9                   -0.6363231674792088      0.48237687388889033
5.67E9                   -0.5918111464793143      0.5336887317292658
5.7E9                    -0.5431601172186816      0.5809172496520706
5.73E9                   -0.49074255484195417     0.6237322903737728
5.76E9                   -0.4349568693295476      0.6618375565291175
5.79E9                   -0.3762243321270791      0.6949725742431307
5.82E9                   -0.3149858645743142      0.7229143958149938
5.85E9                   -0.25169871312482067     0.745479018006065
5.88E9                   -0.18683303293443088     0.7625225129673834
5.91E9                   -0.1208683999343613      0.7739418674663738
5.94E9                   -0.054290272545741126    0.7796755246463726
5.97E9                   0.01241357332469164      0.7797036226644528
6.0E9                    0.07875660953915756      0.7740479265148197
