% Model:              three_layers reality at 0.1mm.mph
% Version:            COMSOL 5.6.0.280
% Date:               Feb 21 2022, 15:42
% Table:              表格 1 - 全局计算 1
% freq (Hz)              real(emw.S11) (1)        imag(emw.S11) (1)
300000000                0.6230146092610469       -0.7617013516852036
330000000                0.553488873623355        -0.8138970689248279
360000000                0.47964934838331497      -0.8597523263959422
390000000                0.402073720689341        -0.8989123105301804
420000000                0.3213687318813211       -0.9310747536249399
450000000                0.2381654143134707       -0.9559923115288967
480000000                0.15311412960571344      -0.9734745122049961
510000000                0.06687944987764176      -0.9833892570379699
540000000                -0.01986508039638295     -0.9856638623114233
570000000                -0.10644225868961038     -0.9802856304728762
600000000                -0.1921765745378739      -0.9673019451443912
630000000                -0.2763995506457108      -0.9468198873372148
660000000                -0.3584550328502573      -0.9190053744967575
690000000                -0.43770438596315736     -0.8840818276289483
720000000                -0.5135315519165418      -0.8423283762066014
750000000                -0.5853479292064175      -0.7940776140655988
780000000                -0.6525970325340921      -0.7397129237796056
810000000                -0.7147588937512057      -0.6796653907049167
840000000                -0.7713541672589144      -0.6144103314389553
870000000                -0.8219479051162397      -0.544463465127359
900000000                -0.8661529700234691      -0.4703767592432693
930000000                -0.9036330574490825      -0.3927339843901855
960000000                -0.934105301507528       -0.3121460153566479
990000000                -0.9573424427769264      -0.2292459181693518
1020000000               -0.9731745402999803      -0.14468386452459167
1050000000               -0.9814902139500108      -0.05912191662111193
1080000000               -0.9822374075391892      0.026771272889610766
1110000000               -0.9754236675595234      0.1123258018517652
1140000000               -0.9611159365510886      0.19687585428036358
1170000000               -0.9394398646128057      0.2797649868174841
1200000000               -0.9105786468222359      0.3603513209750907
1230000000               -0.8747713984796075      0.4380125984985577
1260000000               -0.8323110841452537      0.5121510580321401
1290000000               -0.7835420203282504      0.5821980932825911
1320000000               -0.7288569751854331      0.6476186553440904
1350000000               -0.6686938918843266      0.7079153643406911
1380000000               -0.6035322655609642      0.7626322981798181
1410000000               -0.5338892060051532      0.8113584299361917
1440000000               -0.4603152209482856      0.8537306881893896
1470000000               -0.383389756664881       0.8894366184258911
1500000000               -0.3037165340407807      0.9182166273353506
1530000000               -0.22191871947302977     0.9398657954983517
1560000000               -0.1386339711198044      0.9542352476542377
1590000000               -0.05450940092140542     0.9612330737672938
1620000000               0.02980350671637666      0.9608247976785069
1650000000               0.11365397915168512      0.9530333938917268
1680000000               0.1963970025805143       0.9379388566325169
1710000000               0.27739829326565907      0.9156773287618855
1740000000               0.3560391547788463       0.886439801475617
1770000000               0.43172118528926123      0.8504703987599321
1800000000               0.5038707998984476       0.8080642636788137
1830000000               0.5719435356043058       0.7595650661221139
1860000000               0.6354281080685905       0.70536215434376
1890000000               0.6938501919339676       0.6458873748307034
1920000000               0.7467758987490356       0.581611587164938
1950000000               0.7938149291375094       0.5130409024108654
1980000000               0.834623378591262        0.44071267511778195
2010000000               0.8689061789827343       0.3651912804886528
2040000000               0.896419160940533        0.2870637091872556
2070000000               0.9169707251060739       0.20693501319368615
2100000000               0.9304231135001487       0.125423636083571
2130000000               0.9366932750063474       0.04315666124112396
2.16E9                   0.9357533216805515       -0.039234989733257744
2.19E9                   0.9276305741533829       -0.12112137744604018
2.22E9                   0.9124071943766737       -0.20187835464806084
2.25E9                   0.8902194015571709       -0.2808923364968727
2.28E9                   0.8612562631479759       -0.35756499750751386
2.31E9                   0.8257580510384742       -0.4313178505844432
2.34E9                   0.7840141623110505       -0.5015966453711244
2.37E9                   0.7363606316221756       -0.5678755109967936
2.4E9                    0.6831773026195762       -0.6296607810874102
2.43E9                   0.6248847496494904       -0.6864944869920149
2.46E9                   0.561941016490958        -0.737957562405044
2.49E9                   0.49483817395084967      -0.7836728190827471
2.52E9                   0.42409864743599024      -0.8233077099523598
2.55E9                   0.35027127044488804      -0.8565768334250699
2.58E9                   0.2739270670017852       -0.8832441021712516
2.61E9                   0.19565481078543084      -0.9031245124770125
2.64E9                   0.11605642662957223      -0.9160854815855306
2.67E9                   0.03574229547430115      -0.9220477458323306
2.7E9                    -0.04467348731933712     -0.9209858243933637
2.73E9                   -0.12457786045435598     -0.912928056546717
2.76E9                   -0.20336351622832663     -0.8979562198925711
2.79E9                   -0.2804335577580518      -0.8762047367333525
2.82E9                   -0.35520606017173884     -0.8478594766430568
2.85E9                   -0.4271185022539243      -0.813156165180958
2.88E9                   -0.49563203514385407     -0.7723784112981962
2.91E9                   -0.5602355552673847      -0.725855368962562
2.94E9                   -0.6204495498931509      -0.6739590515419502
2.97E9                   -0.6758296852288873      -0.6171013204927469
3.0E9                    -0.7259701089870673      -0.5557305726768287
3.03E9                   -0.7705064415560396      -0.4903281533415991
3.06E9                   -0.8091184325907218      -0.4214045240874483
3.09E9                   -0.8415322626341215      -0.34949521730432487
3.12E9                   -0.8675224724396492      -0.27515661036619055
3.15E9                   -0.8869135059718039      -0.19896155423034673
3.18E9                   -0.8995808563610089      -0.12149489230458421
3.21E9                   -0.9054518075993363      -0.04334890606830989
3.24E9                   -0.9045057682112857      0.03488127569473061
3.27E9                   -0.8967741965650279      0.11260226719409488
3.3E9                    -0.8823401208348637      0.1892269790275165
3.33E9                   -0.8613372598060368      0.2641790988751648
3.36E9                   -0.8339487537823619      0.33689746447545915
3.39E9                   -0.8004055177290053      0.4068402951402182
3.42E9                   -0.7609842316118586      0.47348924902257183
3.45E9                   -0.7160049855965556      0.5363532748658172
3.48E9                   -0.6658286004943177      0.594972228358877
3.51E9                   -0.610853646655961       0.6489202248861945
3.54E9                   -0.5515131873519955      0.6978087024984294
3.57E9                   -0.48827127545386895     0.7412891714871952
3.6E9                    -0.4216192350260897      0.7790556298758848
3.63E9                   -0.3520717614545425      0.8108466280188416
3.66E9                   -0.2801628755775544      0.8364469694177699
3.69E9                   -0.20644176771166114     0.8556890394121344
3.72E9                   -0.13146856768662013     0.8684537574842459
3.75E9                   -0.055810076197445116    0.874671153018841
3.78E9                   0.019964508323842802     0.8743205680641651
3.81E9                   0.09528783480225159      0.8674304941753231
3.84E9                   0.16959858645371712      0.8540780535678432
3.87E9                   0.24234558248182322      0.8343881371836135
3.9E9                    0.31299177086801344      0.8085322133919173
3.93E9                   0.3810180916021169       0.7767268206860631
3.96E9                   0.4459271913468952       0.7392317562969133
3.99E9                   0.5072469704498372       0.6963479710887701
4.02E9                   0.5645339413737196       0.6484151806724974
4.05E9                   0.6173763754525411       0.5958092039648921
4.08E9                   0.6653972128950966       0.538939043809738
4.11E9                   0.708256710890106        0.47824372870111953
4.14E9                   0.745654806259412        0.4141889394243946
4.17E9                   0.777333172452784        0.3472634484967289
4.2E9                    0.8030769551775677       0.2779754028216332
4.23E9                   0.8227161755386607       0.20684848128282024
4.26E9                   0.8361267940007544       0.1344179586005312
4.29E9                   0.8432314318836845       0.06122670573912238
4.32E9                   0.8439997495584723       -0.012178844318395735
4.35E9                   0.8384484821040719       -0.08525273798208964
4.38E9                   0.8266411342256053       -0.15745352273492538
4.41E9                   0.8086873373096228       -0.22824822247855947
4.44E9                   0.7847418728775083       -0.297116239400849
4.47E9                   0.7550033685984652       -0.36355315499857643
4.5E9                    0.7197126754591182       -0.42707440248085027
4.53E9                   0.6791509374200864       -0.4872187831307988
4.56E9                   0.6336373678543361       -0.5435517998262608
4.59E9                   0.5835267499702778       -0.5956687823211381
4.62E9                   0.5292066811007343       -0.643197780810004
4.65E9                   0.47109458315558506      -0.6858022066383539
4.68E9                   0.4096345029959187       -0.7231832020281811
4.71E9                   0.34529372754921844      -0.7550817233072273
4.74E9                   0.27855923845753966      -0.7812803247327282
4.77E9                   0.20993403113148867      -0.801604631530672
4.8E9                    0.13993332312438264      -0.8159244918337856
4.83E9                   0.06908067781154763      -0.8241547977687524
4.86E9                   -0.0020959288128031164   -0.8262559669614605
4.89E9                   -0.07306806794443226     -0.8222340776858181
4.92E9                   -0.14331081182673433     -0.8121406541246972
4.95E9                   -0.21230664762111387     -0.7960721025289216
4.98E9                   -0.279549316954025       -0.774168804037142
5.01E9                   -0.34454754813046434     -0.7466138749226113
5.04E9                   -0.40682865064530793     -0.7136316094281014
5.07E9                   -0.4659419452872012      -0.6754856236247037
5.1E9                    -0.5214620074097823      -0.6324767203601358
5.13E9                   -0.5729917046773582      -0.5849404953218541
5.16E9                   -0.6201650130088354      -0.5332447029383954
5.19E9                   -0.6626495950428027      -0.47778639913621723
5.22E9                   -0.7001491238532075      -0.41898887781358857
5.25E9                   -0.732405332895492       -0.3572984197537202
5.28E9                   -0.7591997724203333      -0.29318087722348835
5.31E9                   -0.7803552548662112      -0.2271181228793454
5.34E9                   -0.7957369769599304      -0.15960439593096942
5.37E9                   -0.8052533131556553      -0.0911425797102254
5.4E9                    -0.8088562812541777      -0.02224044304013812
5.43E9                   -0.8065416849993616      0.04659312624445508
5.46E9                   -0.798348939595266       0.11485187110418396
5.49E9                   -0.7843605853195632      0.18203587661760467
5.52E9                   -0.7647014930647915      0.24765522140181356
5.55E9                   -0.7395377649566579      0.3112335466147754
5.58E9                   -0.7090753338360415      0.37231151788491784
5.61E9                   -0.6735582675200726      0.43045015327800656
5.64E9                   -0.6332667874016968      0.4852339884700345
5.67E9                   -0.5885150157458137      0.5362740497363248
5.7E9                    -0.539648471821604       0.5832106062541422
5.73E9                   -0.48704134267122756     0.6257156767247157
5.76E9                   -0.4310935586048607      0.6634952710665053
5.79E9                   -0.3722277047245484      0.6962913552108466
5.82E9                   -0.31088579763322954     0.723883533378249
5.85E9                   -0.24752595210066464     0.7460904457636384
5.88E9                   -0.18261895832062047     0.7627708795633185
5.91E9                   -0.11664478877551457     0.773824589059182
5.94E9                   -0.050089055036220215    0.7791928183760062
5.97E9                   0.016560561996748293     0.7788585203081982
6.0E9                    0.08281788145499736      0.7728462666988941
