% Model:              three_layers reality at 0.1mm.mph
% Version:            COMSOL 5.6.0.280
% Date:               Mar 7 2022, 19:48
% Table:              表格 1 - 全局计算 1
% freq (Hz)              real(emw.S11) (1)        imag(emw.S11) (1)
300000000                0.49295362976185975      -0.7886957688080231
330000000                0.41266594009505086      -0.8305476321399907
360000000                0.32909085847410363      -0.8644347967367759
390000000                0.24297343723843562      -0.8901051847820645
420000000                0.1550860333324666       -0.9073745189142364
450000000                0.06622002346529535      -0.9161303407850767
480000000                -0.02282247529266748     -0.9163346227177585
510000000                -0.11123682815923903     -0.9080251760502505
540000000                -0.19822399356721532     -0.8913159925016019
570000000                -0.28299846476452695     -0.8663966162778429
600000000                -0.3647959821135837      -0.8335306224095258
630000000                -0.442880954875001       -0.793053265243774
660000000                -0.5165535313187138      -0.7453683556520335
690000000                -0.5851562579798051      -0.6909444237529172
720000000                -0.6480802709402081      -0.6303102249768867
750000000                -0.704770966105198       -0.5640496489487694
780000000                -0.7547330994515896      -0.4927960937604022
810000000                -0.7975352740063096      -0.4172263707121153
840000000                -0.8328137756646652      -0.33805420766982586
870000000                -0.8602757268063496      -0.25602342139436984
900000000                -0.8797015330977122      -0.171900831367151
930000000                -0.8909466061969614      -0.0864689889837074
960000000                -0.893942352269748       -5.187966040460618E-4
990000000                -0.888696423601817       0.08515790879646315
1020000000               -0.8752922379722853      0.16977573345993519
1050000000               -0.8538877776983981      0.25256299363122964
1080000000               -0.8247136873164491      0.33276880074376197
1110000000               -0.7880706956754117      0.4096698973882865
1140000000               -0.7443263945561155      0.48257718004544686
1170000000               -0.6939114120084002      0.5508418482137537
1200000000               -0.6373150240404883      0.6138611245433405
1230000000               -0.5750802531655966      0.6710834957015508
1260000000               -0.5077985068193728      0.7220134289119917
1290000000               -0.43610381218736605     0.7662155253738564
1320000000               -0.3606667071457125      0.8033180776964199
1350000000               -0.2821878494018277      0.8330160049172459
1380000000               -0.20139140749474818     0.8550731452303465
1410000000               -0.11901829861521769     0.869323892953659
1440000000               -0.03581933801829323     0.8756741730429383
1470000000               0.04745163471209395      0.8741017525920056
1500000000               0.1300445891649158       0.864655895386118
1530000000               0.21122003458557206      0.8474563714085628
1560000000               0.2902555874883042       0.8226918392259022
1590000000               0.36645231856986665      0.7906176245884284
1620000000               0.4391408245010672       0.751552923866647
1650000000               0.5076869737931485       0.705877465654064
1680000000               0.5714972796287018       0.6540276683931213
1710000000               0.630023857236198        0.5964923357638567
1740000000               0.682768927858318        0.5338079351407071
1770000000               0.7292888364833339       0.4665535075229831
1800000000               0.7691975559071026       0.39534525982586455
1830000000               0.8021696552889115       0.3208308925845607
1860000000               0.8279427175405858       0.2436837175063813
1890000000               0.8463191964198554       0.16459661998635705
1920000000               0.8571677111647937       0.08427592162842067
1950000000               0.8604237842280504       0.0034351962638854957
1980000000               0.8560900359190768       -0.07721091045701362
2010000000               0.8442358583808528       -0.15695281414552095
2040000000               0.8249965995910075       -0.2350920442045845
2070000000               0.7985722939262566       -0.3109471999169332
2100000000               0.7652259750876844       -0.38385981945597003
2130000000               0.7252815915762995       -0.45320020625623103
2.16E9                   0.6791215013102914       -0.5183732963644105
2.19E9                   0.627183432182505        -0.5788246778219288
2.22E9                   0.5699566477746224       -0.6340468451526085
2.25E9                   0.5079768719652895       -0.6835856167382058
2.28E9                   0.4418194091232939       -0.7270462744646369
2.31E9                   0.3720900792894316       -0.7640984086614062
2.34E9                   0.29941435105897923      -0.7944779382672115
2.37E9                   0.2244263841825795       -0.8179849597704143
2.4E9                    0.14776081803706093      -0.8344775576884796
2.43E9                   0.07004970446701453      -0.8438640831985638
2.46E9                   -0.00807555118434724     -0.8460978487859592
2.49E9                   -0.08598039418406991     -0.8411769773167523
2.52E9                   -0.16302553961412497     -0.8291489412327387
2.55E9                   -0.23856983108549096     -0.8101167923595055
2.58E9                   -0.3119770484173827      -0.7842439428137465
2.61E9                   -0.3826246630769375      -0.7517559333697038
2.64E9                   -0.44991262214593253     -0.7129392608895921
2.67E9                   -0.5132710820889852      -0.6681381339199796
2.7E9                    -0.5721667947881822      -0.6177500687479687
2.73E9                   -0.6261082718533654      -0.5622209554140776
2.76E9                   -0.6746499779894208      -0.5020399254854321
2.79E9                   -0.7173957775187767      -0.4377341541603178
2.82E9                   -0.7540017868121316      -0.3698636281508314
2.85E9                   -0.7841787192641512      -0.29901587356784587
2.88E9                   -0.8076937634161484      -0.2258006330147497
2.91E9                   -0.824372007060913       -0.15084448976232437
2.94E9                   -0.834097406433378       -0.0747854481094231
2.97E9                   -0.8368132941307407      0.0017325100777690128
3.0E9                    -0.8325224192815744      0.07806486412743602
3.03E9                   -0.8212865163115373      0.15357195409255067
3.06E9                   -0.8032254030883972      0.22762430236354653
3.09E9                   -0.7785156145956728      0.2996078168370073
3.12E9                   -0.747388583895474       0.36892883486254213
3.15E9                   -0.7101283874853336      0.43501896885951163
3.18E9                   -0.6670690766456248      0.49733971762625884
3.21E9                   -0.6185916194044064      0.5553868115452815
3.24E9                   -0.5651204787937751      0.6086942645862448
3.27E9                   -0.5071198520477878      0.6568381099044411
3.3E9                    -0.44508959266190484     0.6994397980103891
3.33E9                   -0.3795608337426705      0.7361692358908521
3.36E9                   -0.3110913283614939      0.766747441582945
3.39E9                   -0.24026052246480456     0.7909487817623289
3.42E9                   -0.16766438002776793     0.8086027509965279
3.45E9                   -0.09390999004406009     0.8195952423440915
3.48E9                   -0.019610001311403738    0.8238692528494694
3.51E9                   0.05462304719090483      0.8214249677313975
3.54E9                   0.12818240771948783      0.8123191769916045
3.57E9                   0.20047270146016435      0.7966639998965127
3.6E9                    0.2709152624173243       0.7746249255549245
3.63E9                   0.3389531161373322       0.7464182170777592
3.66E9                   0.40405547666483843      0.7123077653108075
3.69E9                   0.46572167290144545      0.6726015084174106
3.72E9                   0.5234844499764174       0.6276475521136544
3.75E9                   0.5769126268568127       0.577830133491214
3.78E9                   0.6256131265489678       0.5235655737023327
3.81E9                   0.6692324345942016       0.46529836239204975
3.84E9                   0.7074575891169581       0.40349750351104946
3.87E9                   0.7400168578844017       0.3386532157418575
3.9E9                    0.7666802983284584       0.27127401263943013
3.93E9                   0.7872604017139221       0.2018840932614812
3.96E9                   0.8016129750748441       0.1310208776345314
3.99E9                   0.8096383163176135       0.05923245671703347
4.02E9                   0.8112826140336392       -0.01292527856118888
4.05E9                   0.8065393927299596       -0.08489200395702373
4.08E9                   0.795450760737711        -0.15610689132874525
4.11E9                   0.7781082179283395       -0.22601304722156268
4.14E9                   0.7546528369248261       -0.2940623083724015
4.17E9                   0.7252747217169493       -0.35972018812860485
4.2E9                    0.6902117430326759       -0.42247076450628307
4.23E9                   0.6497476260190116       -0.48182133925328874
4.26E9                   0.6042095081535881       -0.5373067594263798
4.29E9                   0.5539650906584079       -0.5884933579837895
4.32E9                   0.49941948247196866      -0.6349825197481309
4.35E9                   0.4410117964870427       -0.676413903521299
4.38E9                   0.3792115195091217       -0.7124683494405647
4.41E9                   0.31451465266341594      -0.7428704804897475
4.44E9                   0.2474396130153929       -0.7673909801979428
4.47E9                   0.17852289803535354      -0.7858485058069967
4.5E9                    0.10831453556973632      -0.7981111843795561
4.53E9                   0.037373366280565        -0.8040976401272814
4.56E9                   -0.033737773114744844    -0.803777513614973
4.59E9                   -0.10445688285449446     -0.7971714546313285
4.62E9                   -0.17422756178766807     -0.7843505971905208
4.65E9                   -0.24250361774609186     -0.7654355529276916
4.68E9                   -0.3087534673458443      -0.7405949817040766
4.71E9                   -0.37246429669721126     -0.7100438081195055
4.74E9                   -0.43314598688340855     -0.6740411442021055
4.77E9                   -0.49033483037692815     -0.632887952183834
4.8E9                    -0.5435970663337297      -0.5869244456894062
4.83E9                   -0.5925322409340555      -0.5365271974644809
4.86E9                   -0.6367763610756199      -0.48210591083706955
4.89E9                   -0.6760047702637575      -0.42409982688880465
4.92E9                   -0.7099346497051897      -0.36297377591429525
4.95E9                   -0.7383270447745565      -0.2992139289194693
4.98E9                   -0.7609883387036107      -0.23332334938667582
5.01E9                   -0.7777711370157399      -0.1658174759859615
5.04E9                   -0.7885745795595199      -0.09721967589692981
5.07E9                   -0.7933441516558152      -0.028056991411907314
5.1E9                    -0.7920711090530672      0.0411438404428061
5.13E9                   -0.784791649161908       0.10986007825012381
5.16E9                   -0.771585942247412       0.17757642633164586
5.19E9                   -0.7525770802615505      0.2437883422384707
5.22E9                   -0.7279299239317298      0.3080053047750371
5.25E9                   -0.697849762103179       0.3697541006849121
5.28E9                   -0.662580674372552       0.42858210808454544
5.31E9                   -0.622403523874612       0.4840604772684969
5.34E9                   -0.5776335864308433      0.5357870739808875
5.37E9                   -0.5286179059089194      0.5833890753833207
5.4E9                    -0.4757325132487055      0.6265251812373464
5.43E9                   -0.41937963835845293     0.6648874869538106
5.46E9                   -0.35998498852871824     0.6982031245041065
5.49E9                   -0.2979950910530395      0.7262357918949814
5.52E9                   -0.23387463029192768     0.748787263187489
5.55E9                   -0.16810366961185644     0.7656989139307904
5.58E9                   -0.10117464279972932     0.7768532302755901
5.61E9                   -0.03358902516927085     0.7821752094796109
5.64E9                   0.03414635447911731      0.7816335162643037
5.67E9                   0.10152333148677783      0.7752412427911
5.7E9                    0.16803664913835592      0.7630561385203011
5.73E9                   0.23318826504501403      0.7451802338894654
5.76E9                   0.2964915346931141       0.721758869399583
5.79E9                   0.35747512016963834      0.6929792313558409
5.82E9                   0.415686554493697        0.6590685487762844
5.85E9                   0.47069548838293684      0.6202920967928082
5.88E9                   0.5220967115660038       0.5769510864737013
5.91E9                   0.5695130476574699       0.5293804357703006
5.94E9                   0.6125981765982567       0.47794635333031454
5.97E9                   0.6510393721377259       0.4230436486246181
6.0E9                    0.6845600852014787       0.3650927040326889
