% Model:              three_layers reality at 0.1mm.mph
% Version:            COMSOL 5.6.0.280
% Date:               Feb 24 2022, 22:02
% Table:              表格 1 - 全局计算 1
% freq (Hz)              real(emw.S11) (1)        imag(emw.S11) (1)
300000000                0.6228911003559411       -0.7529197968981417
330000000                0.554955352464436        -0.804084054490557
360000000                0.48291702585503843      -0.8491750854530423
390000000                0.4073070973341901       -0.887863939950595
420000000                0.32868519885713976      -0.9198675177448659
450000000                0.24763508394216985      -0.9449513765213968
480000000                0.16475997938680928      -0.9629319681115875
510000000                0.0806778413660359       -0.9736783602853653
540000000                -0.003983462699921248    -0.9771134761832034
570000000                -0.08859102164847901     -0.973214869319543
600000000                -0.17251176960323492     -0.9620150448884349
630000000                -0.2551173649655218      -0.9436013353031847
660000000                -0.3357890275815111      -0.9181153368271087
690000000                -0.4139222995169493      -0.8857519153924459
720000000                -0.48893169518588453     -0.8467577911774458
750000000                -0.5602552059395877      -0.8014297139575505
780000000                -0.6273586252399064      -0.7501122435284284
810000000                -0.68973965974519        -0.6931951532809135
840000000                -0.7469317954363999      -0.6311104761762126
870000000                -0.7985078864992879      -0.5643292173473018
900000000                -0.8440834391850885      -0.49335775833596984
930000000                -0.883319563459015       -0.4187339820660295
960000000                -0.9159255687388985      -0.34102314908762543
990000000                -0.9416611824053599      -0.26081355851044574
1020000000               -0.9603383731881151      -0.1787120283292709
1050000000               -0.9718227645516786      -0.09533923197772123
1080000000               -0.9760346268735227      -0.011324928878646773
1110000000               -0.9729494407334096      0.07269687232164368
1140000000               -0.962598027286881       0.15609277834149196
1170000000               -0.9450662454358656      0.2382348644736334
1200000000               -0.9204942592877381      0.3185054767078417
1230000000               -0.8890753828913112      0.3963019446960782
1260000000               -0.8510545131006655      0.47104116711477984
1290000000               -0.8067261645579195      0.542164033567531
1320000000               -0.7564321243138621      0.6091396478651411
1350000000               -0.7005587466272243      0.6714693198798655
1380000000               -0.6395339113492696      0.7286902952800743
1410000000               -0.5738236717048196      0.7803791951453064
1440000000               -0.5039286202204997      0.8261551395157497
1470000000               -0.43038000257216213     0.8656825327811003
1500000000               -0.35373561207264076     0.8986734907775932
1530000000               -0.274575497688049       0.9248898935179434
1560000000               -0.1934975206291455      0.9441450499891091
1590000000               -0.11111279454475707     0.9563049651714031
1620000000               -0.02804104525613891     0.9612892024294415
1650000000               0.05509407411647978      0.9590713377806628
1680000000               0.1376696768020146       0.9496790056784011
1710000000               0.21906830949320855      0.9331935390862424
1740000000               0.2986825581587468       0.9097492096125613
1770000000               0.3759195590434953       0.8795320763162009
1800000000               0.45020538198842885      0.8427784546332403
1830000000               0.5209892550948926       0.7997730193381671
1860000000               0.5877476009248636       0.750846557977806
1890000000               0.6499878562846391       0.6963733934317693
1920000000               0.7072520494981718       0.6367684962925255
1950000000               0.7591201109442185       0.5724843097413881
1980000000               0.8052128948027861       0.5040073112264489
2010000000               0.8451948921093543       0.4318543367919998
2040000000               0.8787766174185769       0.3565686952625791
2070000000               0.9057166536743516       0.2787161007606342
2100000000               0.9258233423800697       0.19888045273592778
2130000000               0.9389561083917919       0.11765949384804371
2.16E9                   0.9450264112336658       0.03566037639644667
2.19E9                   0.9439983172559594       -0.046504831355124225
2.22E9                   0.9358886894855488       -0.12822366753260836
2.25E9                   0.9207669944849542       -0.2088877961283644
2.28E9                   0.8987547280622263       -0.28789749206299364
2.31E9                   0.870024464110918        -0.36466606086191033
2.34E9                   0.8347985331492588       -0.43862416258356546
2.37E9                   0.7933473393029605       -0.5092240102678313
2.4E9                    0.7459873263249144       -0.5759434141902794
2.43E9                   0.6930786044811292       -0.6382896442032021
2.46E9                   0.6350222512934796       -0.6958030824285629
2.49E9                   0.572257300160157        -0.7480606378915055
2.52E9                   0.5052574328464708       -0.7946788926506569
2.55E9                   0.43452739743996394      -0.8353169456400988
2.58E9                   0.3605991825365855       -0.8696789199756982
2.61E9                   0.2840279910843199       -0.8975161051261925
2.64E9                   0.2053880659798626       -0.9186287209098627
2.67E9                   0.12526841575120323      -0.9328673108431516
2.7E9                    0.044268469685928125     -0.9401337852025519
2.73E9                   -0.03700633036338452     -0.9403821278353428
2.76E9                   -0.11794900240725036     -0.9336187594556474
2.79E9                   -0.19795554984842578     -0.9199025312267711
2.82E9                   -0.2764295071879565      -0.8993443198669496
2.85E9                   -0.3527864572715802      -0.8721062081131447
2.88E9                   -0.42645846806557075     -0.8384002512858892
2.91E9                   -0.49689840210187325     -0.7984868432328662
2.94E9                   -0.5635840592453183      -0.7526727011163272
2.97E9                   -0.62602211955193        -0.7013084905145175
3.0E9                    -0.683751856578739       -0.6447861129924544
3.03E9                   -0.7363485938554961      -0.5835356789886604
3.06E9                   -0.7834268787887432      -0.5180221902547834
3.09E9                   -0.8246433499173396      -0.4487419579632674
3.12E9                   -0.8596992755018626      -0.3762187845691344
3.15E9                   -0.8883427437293463      -0.3009999396077765
3.18E9                   -0.9103704875385938      -0.22365196144577348
3.21E9                   -0.925629330079452       -0.1447563185484296
3.24E9                   -0.9340172399841914      -0.06490496506344338
3.27E9                   -0.9354839889483033      0.015304173521768483
3.3E9                    -0.930031407548122       0.09527174856762952
3.33E9                   -0.9177132385946015      0.17440153379461545
3.36E9                   -0.8986345907602449      0.2521049320686811
3.39E9                   -0.8729509985702777      0.32780540766730387
3.42E9                   -0.8408670980859395      0.4009428093119183
3.45E9                   -0.8026349308033377      0.47097755021679016
3.48E9                   -0.7585518912822625      0.537394612948049
3.51E9                   -0.7089583368543374      0.5997073486218681
3.54E9                   -0.654234880444104       0.6574610418918245
3.57E9                   -0.5947993899089128      0.7102362154869525
3.6E9                    -0.5311037195221566      0.7576516504584077
3.63E9                   -0.4636302010378547      0.7993671009871289
3.66E9                   -0.3928879234868203      0.835085685317282
3.69E9                   -0.31940883192872155     0.86455593738871
3.72E9                   -0.24374367643385134     0.8875735065874386
3.75E9                   -0.16645784305990965     0.9039824959875882
3.78E9                   -0.08812709896478009     0.9136764322563867
3.81E9                   -0.009333283826824258    0.9165988631214417
3.84E9                   0.0693400202437342       0.9127435808828074
3.87E9                   0.1473118082356942       0.902154473013942
3.9E9                    0.2240079294083991       0.8849250034750936
3.93E9                   0.29886529048142413      0.8611973310403274
3.96E9                   0.37133595392224134      0.8311610737634922
3.99E9                   0.4408911010894805       0.7950517317316789
4.02E9                   0.5070248315892186       0.7531487832335325
4.05E9                   0.5692577720473029       0.7057734723930642
4.08E9                   0.6271404702392659       0.6532863086525602
4.11E9                   0.6802565534167375       0.5960843001719293
4.14E9                   0.7282256325667952       0.5345979440160447
4.17E9                   0.7707059368733603       0.4692879960251773
4.2E9                    0.807396664228945        0.4006420431826005
4.23E9                   0.838040034742027        0.32917090143002814
4.26E9                   0.8624230350621169       0.2554048625624582
4.29E9                   0.8803788424799323       0.17988981528740705
4.32E9                   0.8917879197544067       0.10318326667110211
4.35E9                   0.8965787739673289       0.025850291534232846
4.38E9                   0.8947283754683841       -0.05154056280002686
4.41E9                   0.8862622352146232       -0.12842138893055174
4.44E9                   0.8712541406335934       -0.20422902234652007
4.47E9                   0.8498255514622048       -0.27840910836904786
4.5E9                    0.8221446582736281       -0.35042010652765865
4.53E9                   0.788425107970862        -0.4197372052188592
4.56E9                   0.7489244026547394       -0.48585611891798774
4.59E9                   0.7039419808840016       -0.5482967400118978
4.62E9                   0.6538169933785447       -0.6066066174418099
4.65E9                   0.5989257882806511       -0.6603642353356828
4.68E9                   0.5396791240742257       -0.7091820662682506
4.71E9                   0.47651913081035746      -0.7527093759082305
4.74E9                   0.4099160423969398       -0.7906347582077125
4.77E9                   0.3403647241416581       -0.8226883828898501
4.8E9                    0.2683810208492773       -0.8486439393545413
4.83E9                   0.19449795115234708      -0.8683202633843667
4.86E9                   0.11926177470039417      -0.881582634649358
4.89E9                   0.043227959253355236     -0.8883437347562757
4.92E9                   -0.033042923890794995    -0.8885642571250646
4.95E9                   -0.10898934671497394     -0.8822531620174724
4.98E9                   -0.1840529827386389      -0.8694675724057532
5.01E9                   -0.2576828450604164      -0.8503123091920906
5.04E9                   -0.3293393719250262      -0.8249390673899868
5.07E9                   -0.3984984273878691      -0.7935452381648311
5.1E9                    -0.4646551850860672      -0.7563723849863749
5.13E9                   -0.5273278638605291      -0.7137043855354416
5.16E9                   -0.586061285473176       -0.6658652542217904
5.19E9                   -0.6404302264700794      -0.6132166631969116
5.22E9                   -0.6900425387320441      -0.5561551821000953
5.25E9                   -0.7345420156292527      -0.49510925861029825
5.28E9                   -0.7736109830138846      -0.43053596301719205
5.31E9                   -0.8069725959370289      -0.3629175211631482
5.34E9                   -0.8343928234986031      -0.2927576611638482
5.37E9                   -0.8556821054824         -0.22057780131668703
5.4E9                    -0.8706966664413051      -0.14691310870229585
5.43E9                   -0.8793394756072562      -0.07230846025753034
5.46E9                   -0.8815608444956023      0.0026856600721160574
5.49E9                   -0.8773586580793341      0.07751729354224773
5.52E9                   -0.8667782395193747      0.1516371333563427
5.55E9                   -0.849911852479952       0.22450261165376628
5.58E9                   -0.8268978488238083      0.2955819138338191
5.61E9                   -0.7979194728306924      0.36435788902124716
5.64E9                   -0.7632033358208548      0.43033182795102576
5.67E9                   -0.7230175769039313      0.49302708218358315
5.7E9                    -0.6776697265144769      0.5519925008982269
5.73E9                   -0.627504289672051       0.6068056630904015
5.76E9                   -0.5729000663525059      0.6570758834180865
5.79E9                   -0.5142672278858429      0.7024469696170154
5.82E9                   -0.4520441713035214      0.7425997094821594
5.85E9                   -0.38669417766934117     0.777254066941549
5.88E9                   -0.31870190389519293     0.8061710705070321
5.91E9                   -0.24856973982184194     0.8291543822210384
5.94E9                   -0.17681406211687475     0.8460515404384825
5.97E9                   -0.10396141510536304     0.8567548737459311
6.0E9                    -0.030544646600306535    0.8612020859183362
