% Model:              three_layers reality at 0.1mm.mph
% Version:            COMSOL 5.6.0.280
% Date:               Feb 24 2022, 22:00
% Table:              表格 1 - 全局计算 1
% freq (Hz)              real(emw.S11) (1)        imag(emw.S11) (1)
300000000                0.6305436099804678       -0.7600623612755092
330000000                0.5617764954717813       -0.8126236706856234
360000000                0.4886897191125204       -0.8589807921186291
390000000                0.4118410264206288       -0.8987803163685699
420000000                0.33181707051702836      -0.931718763736995
450000000                0.24922894477036728      -0.9575449674207486
480000000                0.164707520292626        -0.976062054396526
510000000                0.07889862495750588      -0.9871290090641097
540000000                -0.007541901847412902    -0.9906618083081362
570000000                -0.09395323979842624     -0.9866341181286344
600000000                -0.17967466731369477     -0.9750775454107012
630000000                -0.2640506494331435      -0.9560814411312564
660000000                -0.3464358951596525      -0.9297922549943934
690000000                -0.42620034495811043     -0.8964124445555046
720000000                -0.5027340479580452      -0.8561989458372277
750000000                -0.5754518903977969      -0.8094612157426226
780000000                -0.6437981370235936      -0.7565588601955504
810000000                -0.7072507482102127      -0.6978988656966072
840000000                -0.7653254378057466      -0.6339324549667181
870000000                -0.8175794378415214      -0.5651515911989248
900000000                -0.8636149391897991      -0.49208515803906006
930000000                -0.9030821793470638      -0.41529484574910014
960000000                -0.9356821516720383      -0.33537077643828533
990000000                -0.9611689134752504      -0.2529269036815248
1020000000               -0.9793514737496948      -0.16859622393779927
1050000000               -0.9900952449771065      -0.08302583860421231
1080000000               -0.9933230470312493      0.003128092260516732
1110000000               -0.9890156553909272      0.08920546388476969
1140000000               -0.9772118895599571      0.17454736583913727
1170000000               -0.958008241741212       0.2585012045564709
1200000000               -0.9315580497799554      0.34042576705813876
1230000000               -0.8980702223027912      0.4196961849771064
1260000000               -0.8578075278427225      0.4957087585703974
1290000000               -0.8110844634189246      0.5678856020213223
1320000000               -0.7582647215921435      0.6356790730178717
1350000000               -0.6997582781674642      0.6985759518947692
1380000000               -0.6360181261388805      0.7561013375434851
1410000000               -0.5675366836062252      0.8078222307637596
1440000000               -0.49484190654620086     0.8533507777724676
1470000000               -0.4184931390210782      0.8923471502664875
1500000000               -0.3390767353561033      0.9245220414849259
1530000000               -0.257201490279151       0.949638761101502
1560000000               -0.1734939142523757      0.9675149152050614
1590000000               -0.08859339176196315     0.9780236612139632
1620000000               -0.0031472611598790225   0.9810945309566584
1650000000               0.08219414575710698      0.9767138187369926
1680000000               0.16678246572936253      0.9649245345270459
1710000000               0.24997623016607964      0.9458259258314978
1740000000               0.3311457180342389       0.9195725749719617
1770000000               0.4096776997565522       0.8863730816100164
1800000000               0.4849800372196786       0.8464883433099673
1830000000               0.5564861066882927       0.8002294497115348
1860000000               0.6236590131401546       0.7479552084312435
1890000000               0.6859955661982294       0.6900693233538526
1920000000               0.7430299901419901       0.6270172480277765
1950000000               0.7943373423408371       0.5592827391237177
1980000000               0.839536617039078        0.48738413648123075
2010000000               0.878293513512589        0.4118703981630054
2040000000               0.9103228502747357       0.33331692020656245
2070000000               0.9353906094773209       0.2523211720574224
2100000000               0.9533155982896027       0.16949817962683036
2130000000               0.9639707166291903       0.08547588893216136
2.16E9                   0.9672838234056305       8.90443671275527E-4
2.19E9                   0.9632381960960466       -0.0836185892803546
2.22E9                   0.9518725812761955       -0.16741301232358655
2.25E9                   0.933280836459982        -0.2498607735649676
2.28E9                   0.9076111663833288       -0.33034069313653636
2.31E9                   0.875064959528822        -0.4082471062907185
2.34E9                   0.835895233233551        -0.4829943906844153
2.37E9                   0.7904046981098465       -0.5540213462808187
2.4E9                    0.7389434543142347       -0.6207953977515112
2.43E9                   0.6819063335991356       -0.6828165901810409
2.46E9                   0.6197299020488288       -0.7396213492392962
2.49E9                   0.5528891388239195       -0.7907859765165746
2.52E9                   0.48189380861300074      -0.8359298475341504
2.55E9                   0.407284550620712        -0.8747182764472703
2.58E9                   0.32962871800358046      -0.9068650094211681
2.61E9                   0.24951601658611136      -0.9321343146394163
2.64E9                   0.16755400322428074      -0.9503426546897669
2.67E9                   0.0843635007415486       -0.961359952249345
2.7E9                    5.739647587740037E-4     -0.9651104769554248
2.73E9                   -0.08318119081364764     -0.961573375912987
2.76E9                   -0.16626931440818887     -0.9507828450786171
2.79E9                   -0.24806327693792607     -0.932827914707017
2.82E9                   -0.32794623887340574     -0.9078518165700216
2.85E9                   -0.40531637250735786     -0.8760509139813544
2.88E9                   -0.4795914823781983      -0.8376731952076959
2.91E9                   -0.5502134722768747      -0.7930163459459149
2.94E9                   -0.6166526162897725      -0.742425424090313
2.97E9                   -0.6784115987475425      -0.6862901623744394
3.0E9                    -0.7350292925332699      -0.6250419250220935
3.03E9                   -0.7860842481961262      -0.5591503448939471
3.06E9                   -0.8311978682336747      -0.489119668726556
3.09E9                   -0.8700372428577348      -0.4154848396928144
3.12E9                   -0.9023176257627178      -0.33880734841855076
3.15E9                   -0.9278045310185145      -0.2596708854891154
3.18E9                   -0.9463154351322706      -0.1786768302155278
3.21E9                   -0.9577210715445018      -0.09643961187124452
3.24E9                   -0.9619463082383359      -0.013581980636618227
3.27E9                   -0.9589706026481646      0.06926977370385652
3.3E9                    -0.9488280316605755      0.15149061705847816
3.33E9                   -0.9316068980526713      0.23246154209293501
3.36E9                   -0.9074489182693326      0.3115742771192645
3.39E9                   -0.8765479998713556      0.38823589584172546
3.42E9                   -0.839148620351617       0.4618732918380708
3.45E9                   -0.7955438222311272      0.5319374831315391
3.48E9                   -0.7460728423462624      0.5979077139306728
3.51E9                   -0.6911183961641183      0.6592953224097866
3.54E9                   -0.631103640581653       0.7156473456957478
3.57E9                   -0.5664888410294101      0.7665498356793266
3.6E9                    -0.4977677709356842      0.8116308618087807
3.63E9                   -0.4254638733599785      0.8505631799615998
3.66E9                   -0.35012621624220347     0.8830665493778844
3.69E9                   -0.2723252737545093      0.9089096828048098
3.72E9                   -0.19264856721169094     0.9279118180094603
3.75E9                   -0.11169619934928808     0.939943901942153
3.78E9                   -0.03007631606740322     0.9449293817253844
3.81E9                   0.051599470321457556     0.9428445994609458
3.84E9                   0.13272066240748917      0.9337187905020112
3.87E9                   0.21268242978705684      0.9176336874469873
3.9E9                    0.2908900984047872       0.8947227347482845
3.93E9                   0.3667635438425489       0.8651699216196782
3.96E9                   0.4397414557835774       0.8292082439317108
3.99E9                   0.5092854417762273       0.7871178089877907
4.02E9                   0.5748839397723019       0.7392236004764884
4.05E9                   0.63605591134321         0.6858929239682192
4.08E9                   0.6923542901056315       0.6275325561764556
4.11E9                   0.7433691635620381       0.5645856228541323
4.14E9                   0.7887306697158011       0.4975282311326515
4.17E9                   0.8281115927407733       0.4268658819898251
4.2E9                    0.8612296438869063       0.3531296881204861
4.23E9                   0.8878494148220476       0.2768724225710811
4.26E9                   0.907783991543224        0.1986644240517429
4.29E9                   0.9208962181280929       0.11908938637875462
4.32E9                   0.9270996016805721       0.03874006098573332
4.35E9                   0.926358852587245        -0.04178609739678674
4.38E9                   0.9186900572212793       -0.1218913115694017
4.41E9                   0.9041604829031376       -0.20098185931213536
4.44E9                   0.8828880169410986       -0.27847241832557035
4.47E9                   0.8550402430140864       -0.35379035008199095
4.5E9                    0.8208331595058109       -0.4263798938561323
4.53E9                   0.7805295460529689       -0.4957062418080927
4.56E9                   0.734436986909919        -0.5612594653033958
4.59E9                   0.6829055626636414       -0.6225582624421929
4.62E9                   0.6263252252235749       -0.6791534970863046
4.65E9                   0.5651228745992489       -0.7306315007408074
4.68E9                   0.4997591591777177       -0.7766171107162141
4.71E9                   0.43072502428873777      -0.8167764203636759
4.74E9                   0.358538035926264        -0.850819220369896
4.77E9                   0.28373850817387647      -0.8785011131482062
4.8E9                    0.20688546357361767      -0.8996252854860028
4.83E9                   0.12855245623480868      -0.9140439271532635
4.86E9                   0.04932328761178084      -0.9216592854082357
4.89E9                   -0.030212354415277434    -0.9224243471374272
4.92E9                   -0.10946330191362463     -0.916343142307661
4.95E9                   -0.1878413262457066      -0.9034706645488706
4.98E9                   -0.26476553700533717     -0.8839124073691278
5.01E9                   -0.339666726334675       -0.8578235175917428
5.04E9                   -0.41199162415973184     -0.8254075710112905
5.07E9                   -0.48120703001592224     -0.7869149788601967
5.1E9                    -0.5468037879575818      -0.7426410372863183
5.13E9                   -0.6083005722714206      -0.6929236356572983
5.16E9                   -0.6652474535870347      -0.638140642994904
5.19E9                   -0.7172292177040549      -0.5787069947335072
5.22E9                   -0.7638684121589668      -0.5150715045935855
5.25E9                   -0.8048280989327357      -0.4477134276914435
5.28E9                   -0.83981429428343        -0.37713880194368543
5.31E9                   -0.8685780788193807      -0.3038765953204483
5.34E9                   -0.8909173624215646      -0.22847468735671123
5.37E9                   -0.9066782900763212      -0.1514957147276819
5.4E9                    -0.9157562765665219      -0.0735128128854212
5.43E9                   -0.9180966608788366      0.004894712222655868
5.46E9                   -0.9136949748849003      0.08314574654446502
5.49E9                   -0.9025968251463432      0.16066172785577518
5.52E9                   -0.8848973911139706      0.236870966707031
5.55E9                   -0.8607405472869202      0.31121289281968534
5.58E9                   -0.8303176208433428      0.3831421931448885
5.61E9                   -0.7938657996731671      0.45213281022016916
5.64E9                   -0.7516662084627912      0.5176817723353362
5.67E9                   -0.704041672021408       0.5793128304558098
5.7E9                    -0.6513541855267294      0.6365798795750467
5.73E9                   -0.5940021109748829      0.6890701440565995
5.76E9                   -0.5324171189858532      0.7364071067640109
5.79E9                   -0.4670608961615312      0.7782531611705226
5.82E9                   -0.39842164134599617     0.8143119651134191
5.85E9                   -0.32701037847370673     0.844330476300208
5.88E9                   -0.2533571177965767      0.8681006534758104
5.91E9                   -0.17800689957246726     0.8854608126874228
5.94E9                   -0.10151575406390734     0.8962966338016071
5.97E9                   -0.024446609612408566    0.9005418168822065
6.0E9                    0.05263482197380949      0.8981783907007883
