% Model:              three_layers reality at 0.1mm.mph
% Version:            COMSOL 5.6.0.280
% Date:               Mar 7 2022, 15:49
% Table:              表格 1 - 全局计算 1
% freq (Hz)              real(emw.S11) (1)        imag(emw.S11) (1)
300000000                0.48771741062590374      -0.7840339114657168
330000000                0.4078085015974452       -0.8252334629395796
360000000                0.32471018176443034      -0.8585023575979897
390000000                0.23916063782735597      -0.88360460603078
420000000                0.15192332368500577      -0.9003697189826063
450000000                0.06377922448103633      -0.9086968269642149
480000000                -0.024481014550638315    -0.9085573969392027
510000000                -0.11206499076608711     -0.8999967382675046
540000000                -0.198186392577297       -0.8831344331420397
570000000                -0.2820727161949986      -0.8581637914485548
600000000                -0.36297277836682923     -0.8253504090894368
630000000                -0.4401639574503981      -0.7850298968937445
660000000                -0.5129590972229859      -0.7376048414931979
690000000                -0.5807130124773299      -0.6835410569487812
720000000                -0.6428285383402346      -0.6233631862480267
750000000                -0.6987620702372465      -0.5576497129308912
780000000                -0.7480285456707462      -0.48702744567317047
810000000                -0.7902058251593872      -0.41216554071262224
840000000                -0.8249384352408557      -0.3337691295558337
870000000                -0.8519406427886171      -0.2525726216766128
900000000                -0.8709988367653585      -0.16933275374255002
930000000                -0.8819732005784326      -0.08482145762413978
960000000                -0.884798665095119       1.813791789772929E-4
990000000                -0.8794851398164941      0.0848951877615699
1020000000               -0.8661170267828324      0.16854595397572444
1050000000               -0.8448520289143633      0.25037334563097996
1080000000               -0.8159192713771426      0.3296376615952911
1110000000               -0.7796167611060398      0.40562653676198607
1140000000               -0.736308216011396       0.47766133976867
1170000000               -0.6864193011313255      0.5451032048023889
1200000000               -0.6304333143069661      0.6073586431918389
1230000000               -0.5688863689774888      0.6638846851972736
1260000000               -0.5023621257272524      0.7141935082337835
1290000000               -0.43148612794215035     0.7578565132558426
1320000000               -0.3569197999724967      0.7945078170671229
1350000000               -0.2793541684344435      0.8238471346202444
1380000000               -0.19950336906066096     0.8456420316350486
1410000000               -0.11809800240844358     0.8597295343093333
1440000000               -0.03587840228866579     0.8660170892326733
1470000000               0.0464121197274702       0.8644828729836527
1500000000               0.12803399115835798      0.8551754570118748
1530000000               0.20825799557894556      0.838212839367277
1560000000               0.28637173078179695      0.8137808606039979
1590000000               0.361685851552384        0.782131026567721
1620000000               0.433540043513794        0.7435777658998095
1650000000               0.5013086780623824       0.6984951548067206
1680000000               0.5644061021452025       0.6473131460097041
1710000000               0.622291521039324        0.5905133426547512
1740000000               0.6744734366807826       0.5286243615477196
1770000000               0.7205136091569756       0.4622168330327222
1800000000               0.7600305141267086       0.3918980874581539
1830000000               0.7927022744929076       0.31830658029118086
1860000000               0.8182690507444299       0.24210610921236012
1890000000               0.8365348805740397       0.16397987770181688
1920000000               0.8473689655058358       0.08462445919325887
1950000000               0.8507064097725096       0.004743714757840388
1980000000               0.8465484248882647       -0.07495728587970937
2010000000               0.8349620221597616       -0.15377829637810606
2040000000               0.8160792238079271       -0.23102984525332265
2070000000               0.7900958298876852       -0.30603909012268815
2100000000               0.7572697783661685       -0.37815558326491044
2130000000               0.7179191219916646       -0.4467569917704939
2.16E9                   0.6724196041227732       -0.5112548568341977
2.19E9                   0.6212017289118421       -0.5711005067218462
2.22E9                   0.5647470746949045       -0.6257912178068508
2.25E9                   0.5035834109210232       -0.67487657292695
2.28E9                   0.43827804804578324      -0.7179646102074216
2.31E9                   0.3694290045517223       -0.754726781931524
2.34E9                   0.2976543026119732       -0.7849002070895333
2.37E9                   0.22358101593411775      -0.8082858253251202
2.4E9                    0.14783685906388497      -0.824742463782504
2.43E9                   0.07104677796121593      -0.8341791761843563
2.46E9                   -0.006165423743298426    -0.8365497343206623
2.49E9                   -0.08317339930432813     -0.8318520935973167
2.52E9                   -0.15934652543318056     -0.8201325520972763
2.55E9                   -0.23405242985468694     -0.8014917583544113
2.58E9                   -0.3066634332384438      -0.7760894703697166
2.61E9                   -0.37656501067306875     -0.7441464489973655
2.64E9                   -0.44316438862127133     -0.7059434753133448
2.67E9                   -0.5058981832547782      -0.6618182992797104
2.7E9                    -0.5642387500656418      -0.6121614027519933
2.73E9                   -0.617699342042185       -0.557411200923258
2.76E9                   -0.6658383091251253      -0.49804901964508813
2.79E9                   -0.7082625541390011      -0.43459398955951684
2.82E9                   -0.7446303948772547      -0.367597895690771
2.85E9                   -0.7746539190958529      -0.2976399814634261
2.88E9                   -0.7981008740958316      -0.22532169931645943
2.91E9                   -0.8147961052244188      -0.15126140700920687
2.94E9                   -0.8246225436432003      -0.0760890189984856
2.97E9                   -0.8275217378569231      -4.4063278383059656E-4
3.0E9                    -0.823493923141302       0.07504684208023271
3.03E9                   -0.8125976253972347      0.14974101828451555
3.06E9                   -0.7949488002066046      0.22301929065128534
3.09E9                   -0.7707195129738452      0.29427398164556445
3.12E9                   -0.7401361715178002      0.36291733246698454
3.15E9                   -0.7034773277299273      0.42838630106383147
3.18E9                   -0.6610710694250379      0.4901471314534944
3.21E9                   -0.6132920265427364      0.5476996629045796
3.24E9                   -0.5605580170223633      0.6005813521605992
3.27E9                   -0.5033263567173174      0.64837098586114
3.3E9                    -0.442089854965806       0.6906920627161723
3.33E9                   -0.37737251389233234     0.7272158245213327
3.36E9                   -0.30972494646063525     0.757663911538801
3.39E9                   -0.23971952781572484     0.7818106108381634
3.42E9                   -0.16794529791773966     0.799484657323199
3.45E9                   -0.09500264287084335     0.8105705378112655
3.48E9                   -0.02149779801675962     0.8150092418219274
3.51E9                   0.05196276251538823      0.81279840198065
3.54E9                   0.12477796033003692      0.8039917757035836
3.57E9                   0.19635765841401157      0.7886980403351047
3.6E9                    0.26612798922282066      0.7670789056245466
3.63E9                   0.33353633372554975      0.739346586235745
3.66E9                   0.3980558330195734       0.7057607155933907
3.69E9                   0.45918934033166237      0.6666248135080809
3.72E9                   0.5164727547331447       0.6222824396752936
3.75E9                   0.5694777127927847       0.5731131746352297
3.78E9                   0.6178136491396575       0.519528573432533
3.81E9                   0.6611292759324926       0.4619682364189546
3.84E9                   0.699113578870589        0.40089613037741323
3.87E9                   0.7314964804215862       0.33679725936837557
3.9E9                    0.7580493638889476       0.2701747189765338
3.93E9                   0.778585661113128        0.20154707466066646
3.96E9                   0.792961663759705        0.13144590762125347
3.99E9                   0.8010776239958646       0.06041330340096505
4.02E9                   0.8028790882946617       -0.011000951858124185
4.05E9                   0.7983582961699103       -0.08224264773420606
4.08E9                   0.7875554083425748       -0.15275697502012806
4.11E9                   0.770559323523425        -0.22199285808574232
4.14E9                   0.7475078945175174       -0.289407652118079
4.17E9                   0.7185874410823374       -0.3544720062451445
4.2E9                    0.6840315510081472       -0.416674686364489
4.23E9                   0.6441192378025079       -0.47552718640644476
4.26E9                   0.5991725678660199       -0.5305680163620303
4.29E9                   0.5495538780911903       -0.5813666195313469
4.32E9                   0.4956626829807347       -0.6275269218205328
4.35E9                   0.4379323324878346       -0.6686905418349715
4.38E9                   0.37682644373720375      -0.7045396906061834
4.41E9                   0.3128351044125598       -0.734799770904973
4.44E9                   0.2464708384091086       -0.7592416598027177
4.47E9                   0.17826433399538147      -0.7776836351942932
4.5E9                    0.10875995505041872      -0.7899928943424175
4.53E9                   0.038511079843939026     -0.7960866123236896
4.56E9                   -0.03192466643391985     -0.7959324995481009
4.59E9                   -0.10199020391940401     -0.7895488378529684
4.62E9                   -0.17113372790199435     -0.7770040009366146
4.65E9                   -0.2388132955025558      -0.7584154927719493
4.68E9                   -0.3045012081137737      -0.733948560931348
4.71E9                   -0.3676881586316298      -0.703814452865051
4.74E9                   -0.42788714513662196     -0.6682683762030505
4.77E9                   -0.48463717604582235     -0.6276071989371983
4.8E9                    -0.5375067951398415      -0.5821668900604575
4.83E9                   -0.5860974346864744      -0.5323196702816099
4.86E9                   -0.6300465678451522      -0.47847082989458845
4.89E9                   -0.6690305918342363      -0.4210551837614766
4.92E9                   -0.7027673461986261      -0.3605331685017047
4.95E9                   -0.7310181657070327      -0.2973866336231329
4.98E9                   -0.7535893871170016      -0.23211442325838633
5.01E9                   -0.7703332691244884      -0.16522787713821907
5.04E9                   -0.7811483374173815      -0.09724639049847564
5.07E9                   -0.7859792217704344      -0.028693157975975575
5.1E9                    -0.7848160968067622      0.03990881433549548
5.13E9                   -0.7776938583765621      0.10804040609749953
5.16E9                   -0.7646911516795626      0.17518983391309073
5.19E9                   -0.7459293136923749      0.24085595098558643
5.22E9                   -0.7215712162191714      0.30455149878729215
5.25E9                   -0.6918199278013951      0.3658063724151982
5.28E9                   -0.6569170865008236      0.4241708830327202
5.31E9                   -0.6171409077718368      0.47921892242508224
5.34E9                   -0.5728038287502035      0.5305508962218007
5.37E9                   -0.5242498743593106      0.577796313664227
5.4E9                    -0.4718518808165813      0.6206159916686262
5.43E9                   -0.41600870754169555     0.658703914719562
5.46E9                   -0.3571425158004334      0.6917888535105126
5.49E9                   -0.2956961176211449      0.7196358631477688
5.52E9                   -0.2321303303002754      0.7420477562056964
5.55E9                   -0.16692122975524218     0.7588665910468546
5.58E9                   -0.10055718721123341     0.769975150043483
5.61E9                   -0.03353559632752212     0.7752983211839821
5.64E9                   0.03364075349575746      0.7748042513808496
5.67E9                   0.10046763499095555      0.768505120270473
5.7E9                    0.16644357527156262      0.7564573983532337
5.73E9                   0.2310741236091273       0.7387615079296446
5.76E9                   0.293876010376149        0.7155608913199705
5.79E9                   0.35438104219260147      0.6870405812973519
5.82E9                   0.41213965787704177      0.6534254251174872
5.85E9                   0.4667241660063349       0.6149781085855069
5.88E9                   0.5177317526348885       0.571997064452442
5.91E9                   0.5647873583872437       0.5248142650658173
5.94E9                   0.6075464822346182       0.4737928346504465
5.97E9                   0.6456979040906475       0.41932439542023686
6.0E9                    0.6789662611511205       0.3618260812709353
