% Model:              three_layers reality at 0.1mm.mph
% Version:            COMSOL 5.6.0.280
% Date:               Mar 7 2022, 15:50
% Table:              表格 1 - 全局计算 1
% freq (Hz)              real(emw.S11) (1)        imag(emw.S11) (1)
300000000                0.4911883088888093       -0.787779637467461
330000000                0.4108673061003897       -0.8294083123928625
360000000                0.3273048904533413       -0.8630507497024447
390000000                0.24124775040496563      -0.8884666553472571
420000000                0.15346767425049634      -0.9054821413630301
450000000                0.06475387172244673      -0.9139937857369329
480000000                -0.024094875957184316    -0.9139713188699811
510000000                -0.1122781260684736      -0.9054591138191743
540000000                -0.1990016500177637      -0.8885766060973156
570000000                -0.28348519220394375     -0.8635177373476002
600000000                -0.3649700345960728      -0.8305494985295502
630000000                -0.4427262959815229      -0.7900096376916576
660000000                -0.5160598968557734      -0.7423035927811137
690000000                -0.5843191270350709      -0.687900707675507
720000000                -0.6469007554044274      -0.6273297908112856
750000000                -0.7032556273518508      -0.5611740768649303
780000000                -0.7528936998286756      -0.49006565472232283
810000000                -0.7953884699327132      -0.414679427494502
840000000                -0.8303807592749488      -0.3357266725907382
870000000                -0.8575818224235287      -0.2539482727566827
900000000                -0.8767757553278437      -0.1701076899750064
930000000                -0.8878211861323013      -0.08498375608089033
960000000                -0.8906522384287199      6.366458552288059E-4
990000000                -0.8852787642172141      0.08596593493040469
1020000000               -0.8717858512328865      0.17022314752708803
1050000000               -0.8503326164497536      0.25264114168100454
1080000000               -0.8211503045692382      0.33247362119792306
1110000000               -0.7845397170863392      0.40900191209866094
1140000000               -0.740868003778598       0.4815414280148283
1170000000               -0.6905648544827598      0.5494477647602173
1200000000               -0.6341181344102822      0.6121223691520977
1230000000               -0.572069011144101       0.6690177321165472
1260000000               -0.5050066257363639      0.7196420616742983
1290000000               -0.4335623640677427      0.7635633971342654
1320000000               -0.358403787621746       0.8004131319790017
1350000000               -0.28022828512721354     0.8298889193245973
1380000000               -0.1997565082578129      0.8517569401247272
1410000000               -0.11772565572711358     0.8658535208288104
1440000000               -0.0348826700307658      0.8720860937981669
1470000000               0.04802258849991468      0.8704334999346562
1500000000               0.13024412746293237      0.8609456394806072
1530000000               0.2110465057288197       0.8437424828011365
1560000000               0.2897113549600984       0.8190124588443113
1590000000               0.36554368193972736      0.7870102444508092
1620000000               0.43787789777568964      0.7480539827994231
1650000000               0.506083523371454        0.7025219641217837
1680000000               0.5695705246425231       0.6508488060895834
1710000000               0.6277942350564267       0.5935211754125546
1740000000               0.6802598280086194       0.5310730954726121
1770000000               0.7265263062372498       0.46408088812308146
1800000000               0.7662099810074836       0.3931578001676242
1830000000               0.7989874193060796       0.3189483672595634
1860000000               0.824597843426804        0.24212256933389448
1890000000               0.8428449737335786       0.16336983255886348
1920000000               0.8535983124728355       0.08339293265413124
1950000000               0.8567938741361542       0.002901853169815045
1980000000               0.8524343762626508       -0.0773923510516877
2010000000               0.8405889133863766       -0.15678364103754353
2040000000               0.8213921454461617       -0.23457699757651163
2070000000               0.7950430385673205       -0.31009432515088076
2100000000               0.7618031963980606       -0.38268026456510973
2130000000               0.7219948062509634       -0.45170795863381275
2.16E9                   0.6759981825029144       -0.5165848566802496
2.19E9                   0.6242488016598898       -0.5767586748336008
2.22E9                   0.5672335750946429       -0.6317236086238817
2.25E9                   0.5054859137504645       -0.6810267483021917
2.28E9                   0.43957900553825646      -0.724274286466446
2.31E9                   0.37011688122499625      -0.7611365260448241
2.34E9                   0.2977235799913254       -0.7913501514674649
2.37E9                   0.2230320560858747       -0.8147163475875101
2.4E9                    0.14667565322332177      -0.8310947704384222
2.43E9                   0.06928464646417236      -0.8403957541556416
2.46E9                   -0.008512102672665734    -0.8425746869171787
2.49E9                   -0.08608338668884752     -0.8376314244259571
2.52E9                   -0.16279385454246142     -0.8256144682974655
2.55E9                   -0.23800652460835892     -0.8066270328677971
2.58E9                   -0.3110892656724648      -0.7808318603689083
2.61E9                   -0.3814233304238835      -0.7484531406896682
2.64E9                   -0.4484120322031975      -0.7097755201982793
2.67E9                   -0.5114884542480403      -0.6651410150093501
2.7E9                    -0.570121854810594       -0.6149447229226225
2.73E9                   -0.6238228654843468      -0.5596299668554583
2.76E9                   -0.6721477179388105      -0.49968321252384484
2.79E9                   -0.7147017172398462      -0.43562890375998387
2.82E9                   -0.751142113672977       -0.36802425505023073
2.85E9                   -0.7811804613811213      -0.29745400043251047
2.88E9                   -0.8045845064019098      -0.22452509088566683
2.91E9                   -0.8211796190479558      -0.14986133911390437
2.94E9                   -0.8308497711982263      -0.0740980212863818
2.97E9                   -0.8335380532741411      0.0021235444992866413
3.0E9                    -0.8292467251385315      0.07816141500743315
3.03E9                   -0.8180367976065173      0.1533783997488361
3.06E9                   -0.8000271455243582      0.22714736192340018
3.09E9                   -0.7753931585024908      0.298856402234811
3.12E9                   -0.7443649409222344      0.3679138851934266
3.15E9                   -0.7072250781555294      0.4337532690269509
3.18E9                   -0.6643059904295129      0.4958377033953867
3.21E9                   -0.615986898863517       0.5536643632923577
3.24E9                   -0.5626904293414119      0.6067684922056241
3.27E9                   -0.5048788788923212      0.6547271316803585
3.3E9                    -0.4430501664561206      0.6971625167905349
3.33E9                   -0.37773348628281234     0.7337451166189701
3.36E9                   -0.3094846791640511      0.7641962951278589
3.39E9                   -0.23888133608447584     0.7882905609192223
3.42E9                   -0.1665176525310896      0.8058573652519107
3.45E9                   -0.09299906103172227     0.8167823983305557
3.48E9                   -0.018936685496258755    0.8210083270086473
3.51E9                   0.055058317292284546     0.818534916334224
3.54E9                   0.12838043858130616      0.8094184862328334
3.57E9                   0.2004354067874525       0.7937706753783325
3.6E9                    0.27064555477317037      0.7717565164188604
3.63E9                   0.3384548324335967       0.7435918659805738
3.66E9                   0.4033333450286392       0.7095402719403203
3.69E9                   0.4647813242469141       0.6699093919465827
3.72E9                   0.5223324730341107       0.6250470969824072
3.75E9                   0.5755566604160542       0.5753374033651464
3.78E9                   0.6240619778836024       0.5211963801736155
3.81E9                   0.6674962083743967       0.4630681781837986
3.84E9                   0.7055478069977262       0.4014213149998594
3.87E9                   0.7379465464659148       0.33674531660032125
3.9E9                    0.7644640233616169       0.2695477491009273
3.93E9                   0.7849142306572645       0.20035158026569178
3.96E9                   0.7991543583187977       0.12969271188476303
3.99E9                   0.8070858884096431       0.058117455314503935
4.02E9                   0.8086559275766945       -0.013820287926190592
4.05E9                   0.8038586064999795       -0.0855623228089807
4.08E9                   0.7927363079453102       -0.156550012106736
4.11E9                   0.7753804798038098       -0.22622863939350807
4.14E9                   0.7519318417887512       -0.29405213992962115
4.17E9                   0.7225798823008663       -0.3594879980786649
4.2E9                    0.687561637135476        -0.42202210281863445
4.23E9                   0.6471598194839349       -0.4811633882327242
4.26E9                   0.6017004155846429       -0.5364481464037921
4.29E9                   0.5515498684492393       -0.5874439648781451
4.32E9                   0.49711194986986185      -0.6337532918997403
4.35E9                   0.4388243825402418       -0.6750166587307251
4.38E9                   0.37715523563423475      -0.7109155884030096
4.41E9                   0.3125990915162875       -0.7411752011229717
4.44E9                   0.24567297406181973      -0.7655664999061618
4.47E9                   0.17691203879462858      -0.7839082968783733
4.5E9                    0.10686504563770037      -0.7960687278622505
4.53E9                   0.03608965923957541      -0.8019663027531072
4.56E9                   -0.03485235623402865     -0.8015704506181195
4.59E9                   -0.10539996555740423     -0.7949015390519297
4.62E9                   -0.17499762614799527     -0.7820303738497869
4.65E9                   -0.24309990561054945     -0.7630772132252637
4.68E9                   -0.30917589161724257     -0.738210354287394
4.71E9                   -0.37271336310854536     -0.7076443606569343
4.74E9                   -0.43322272476605284     -0.6716379929536211
4.77E9                   -0.4902407302587925      -0.630491878351886
4.8E9                    -0.54333402312101        -0.5845459197261417
4.83E9                   -0.5921025036795917      -0.534176413607948
4.86E9                   -0.636182492927754       -0.4797928336007716
4.89E9                   -0.6752496241695628      -0.42183424897245403
4.92E9                   -0.7090213658910551      -0.3607653836916205
4.95E9                   -0.737259074516018       -0.2970723683349963
4.98E9                   -0.7597694957481075      -0.23125828262210024
5.01E9                   -0.7764056737110364      -0.16383861861678403
5.04E9                   -0.78706728035107        -0.09533680560272202
5.07E9                   -0.7917004330563474      -0.02627992281718529
5.1E9                    -0.7902971135772634      0.042805315255561575
5.13E9                   -0.7828943216967892      0.11139627861393897
5.16E9                   -0.7695730809775635      0.17897789202349518
5.19E9                   -0.7504573596534609      0.2450459516459522
5.22E9                   -0.72571289263991        0.3091103927565019
5.25E9                   -0.6955458219064058      0.37069857083882846
5.28E9                   -0.6602010461107195      0.4293585391850481
5.31E9                   -0.6199602030700099      0.4846622270121739
5.34E9                   -0.5751392866860489      0.5362083833215622
5.37E9                   -0.5260859848167381      0.5836251735247372
5.4E9                    -0.4731768751816028      0.6265723865220508
5.43E9                   -0.41681461150776383     0.6647432946573097
5.46E9                   -0.357425178807004       0.6978662707906764
5.49E9                   -0.29545522098246285     0.7257062847313134
5.52E9                   -0.23136937507227817     0.7480663752423254
5.55E9                   -0.16564750408320297     0.7647891382881664
5.58E9                   -0.09878171158906995     0.7757582056805287
5.61E9                   -0.03127304438588503     0.7808996264892636
5.64E9                   0.03637216139604132      0.7801830181002711
5.67E9                   0.10364626747993633      0.7736223341636886
5.7E9                    0.17004455594722823      0.7612761121234769
5.73E9                   0.2350695263860729       0.7432471183230646
5.76E9                   0.29823508150217093      0.7196813956924755
5.79E9                   0.3590704449544763       0.6907668103306296
5.82E9                   0.41712373565549776      0.6567312501554
5.85E9                   0.4719652200748236       0.6178406235295264
5.88E9                   0.5231903323081121       0.5743967428283839
5.91E9                   0.5704225622963083       0.5267350925778309
5.94E9                   0.6133162700371515       0.47522241670443155
5.97E9                   0.6515594177429137       0.4202540381744004
6.0E9                    0.6848761541279057       0.36225084417046755
