% Model:              three_layers reality at 0.1mm.mph
% Version:            COMSOL 5.6.0.280
% Date:               Feb 23 2022, 10:35
% Table:              表格 1 - 全局计算 1
% freq (Hz)              real(emw.S11) (1)        imag(emw.S11) (1)
300000000                0.4736819286098715       -0.7797547652995722
330000000                0.39354200737461587      -0.8196300902652564
360000000                0.3103613137197238       -0.8514934623455143
390000000                0.2248883551899432       -0.8751257969056717
420000000                0.13789593610933332      -0.8903745666307137
450000000                0.05017302693772301      -0.897158054268926
480000000                -0.037483460001358895    -0.8954680495457148
510000000                -0.12427687882508441     -0.8853712298069726
540000000                -0.20941895376774725     -0.8670093898074985
570000000                -0.2921376996350961      -0.8405986414502092
600000000                -0.37168508716692394     -0.8064276775933756
630000000                -0.4473443845921664      -0.764855178994668
660000000                -0.5184371113300913      -0.7163064351735623
690000000                -0.5843295419577024      -0.6612692469385446
720000000                -0.6444387045018001      -0.6002891768766331
750000000                -0.6982378204502249      -0.5339642156081175
780000000                -0.7452611403832864      -0.4629389326975109
810000000                -0.7851081344674317      -0.38789818351811806
840000000                -0.8174470040130223      -0.30956044503301
870000000                -0.8420174869510199      -0.2286708553291364
900000000                -0.8586329374840105      -0.14599403276735798
930000000                -0.8671816674868019      -0.06230675147146885
960000000                -0.8676275448847742      0.02160945040867359
990000000                -0.860009851661565       0.1049756535708048
1020000000               -0.844442411706077       0.1870228572117667
1050000000               -0.8211120058467243      0.2669991231672268
1080000000               -0.7902760984534158      0.3441764948148599
1110000000               -0.7522599065808936      0.41785762478964045
1140000000               -0.7074528487178727      0.4873820496121442
1170000000               -0.6563044159717658      0.5521320537746008
1200000000               -0.5993195135077842      0.6115380712904478
1230000000               -0.5370533246374632      0.6650835780181267
1260000000               -0.4701057536429737      0.7123094343331889
1290000000               -0.3991155068470056      0.752817643560102
1320000000               -0.32475387365466823     0.7862744984112101
1350000000               -0.24771827116394096     0.8124130940209469
1380000000               -0.168725617157404       0.831035192793208
1410000000               -0.08850559648908814     0.8420124329752471
1440000000               -0.00779388579017617     0.8452868793027992
1470000000               0.0726745996391804       0.8408709204694683
1500000000               0.15217237415246335      0.8288465242732421
1530000000               0.2299859051519043       0.8093638672197868
1560000000               0.30542193355153985      0.782639360861948
1590000000               0.377813536784476        0.7489531024306517
1620000000               0.4465258832006999       0.7086457820637218
1650000000               0.5109616306560764       0.6621150833782019
1680000000               0.5705659263590196       0.6098116180997746
1710000000               0.6248309697942439       0.5522344389124758
1740000000               0.6733001053209741       0.4899261777954495
1770000000               0.7155714162809403       0.42346785964317546
1800000000               0.7513007980096333       0.3534734429650561
1830000000               0.7802044927889047       0.28058414102405965
1860000000               0.8020610759410591       0.20546257764379253
1890000000               0.8167128887296592       0.128786832035322
1920000000               0.8240669206478834       0.0512444262796254
1950000000               0.8240951511625657       -0.02647369311896259
1980000000               0.8168343689037375       -0.10367913219543745
2010000000               0.8023854944566253       -0.17969194470785432
2040000000               0.7809124403834883       -0.2538464165920835
2070000000               0.752640546786671        -0.3254967286627431
2100000000               0.7178546281103458       -0.3940225124471178
2130000000               0.6768966486767131       -0.45883434862898453
2.16E9                   0.6301629972518754       -0.5193792951865148
2.19E9                   0.5781012376835467       -0.5751465545085954
2.22E9                   0.521206063316832        -0.6256733518965785
2.25E9                   0.46001400310791873      -0.6705509279569002
2.28E9                   0.3950963294085019       -0.7094301653239561
2.31E9                   0.3270498376131823       -0.7420257934211301
2.34E9                   0.25648597552891433      -0.7681176374460585
2.37E9                   0.18402014281916124      -0.7875476433864831
2.4E9                    0.1102640378276071       -0.8002129830822533
2.43E9                   0.035823343091687936     -0.8060579337682303
2.46E9                   -0.03869962390655371     -0.8050685437740501
2.49E9                   -0.11270166751283597     -0.797272687766339
2.52E9                   -0.18557699633235708     -0.7827448023231933
2.55E9                   -0.2567201241917399      -0.7616121204924005
2.58E9                   -0.3255327121827636      -0.7340592387776561
2.61E9                   -0.391432228671156       -0.7003295401900914
2.64E9                   -0.4538604814326889      -0.6607236556954637
2.67E9                   -0.5122909772077795      -0.6155959092073197
2.7E9                    -0.5662348610386648      -0.5653496902637344
2.73E9                   -0.6152456026092913      -0.5104323862240138
2.76E9                   -0.6589227065994399      -0.4513301954609665
2.79E9                   -0.6969146854963739      -0.3885629413670804
2.82E9                   -0.7289214544938786      -0.3226789079672098
2.85E9                   -0.7546962386310847      -0.25424968337192855
2.88E9                   -0.7740470346294709      -0.1838649948949578
2.91E9                   -0.7868376420714649      -0.11212752948999088
2.94E9                   -0.792988264654296       -0.0396477456072747
2.97E9                   -0.7924756771131272      0.032961306298189885
3.0E9                    -0.7853329534047773      0.10508912887972227
3.03E9                   -0.7716487545589861      0.17613285671073445
3.06E9                   -0.7515661790649308      0.24550223317189485
3.09E9                   -0.7252811838069704      0.3126244480423533
3.12E9                   -0.6930405889593548      0.37694879846019935
3.15E9                   -0.6551396852211578      0.4379511378004011
3.18E9                   -0.6119194658785926      0.49513808021723404
3.21E9                   -0.5637635086805499      0.5480509329444865
3.24E9                   -0.5110945331431092      0.5962693329019259
3.27E9                   -0.45437065742079        0.6394145679135117
3.3E9                    -0.3940813758913298      0.6771525646167684
3.33E9                   -0.3307432749945236      0.7091965242029037
3.36E9                   -0.26489550227136976     0.7353091828884546
3.39E9                   -0.19709500367948396     0.7553046669155015
3.42E9                   -0.12791154874423577     0.7690499030863942
3.45E9                   -0.05792257350991364     0.7764655372371332
3.48E9                   0.012292112429480896     0.7775263078009126
3.51E9                   0.08215568673408545      0.7722608228180893
3.54E9                   0.15109965102059847      0.7607506998669841
3.57E9                   0.21856903013497142      0.7431290509857164
3.6E9                    0.28402730803561343      0.7195783277027726
3.63E9                   0.3469609755427023       0.6903275799794875
3.66E9                   0.40688358184179363      0.6556492197852238
3.69E9                   0.46333921087108654      0.6158554080652773
3.72E9                   0.5159053387451529       0.5712941997257367
3.75E9                   0.5641950636457834       0.5223455868982895
3.78E9                   0.6078587340477196       0.4694175806574709
3.81E9                   0.6465850392669122       0.41294246659634154
3.84E9                   0.6801016718243539       0.3533733540195445
3.87E9                   0.7081757201147973       0.29118109998388875
3.9E9                    0.7306139857296611       0.2268516204852596
3.93E9                   0.7472634197719537       0.16088350833788942
3.96E9                   0.7580118206684855       0.09378578505780238
3.99E9                   0.7627888359789289       0.02607555581327714
4.02E9                   0.761567188727015        -0.04172466212131592
4.05E9                   0.7543639429035864       -0.10909010164164652
4.08E9                   0.7412415658715426       -0.17549745395939417
4.11E9                   0.722308551330232        -0.2404290591243981
4.14E9                   0.6977194269646291       -0.3033774214652623
4.17E9                   0.6676740621769817       -0.363849844049119
4.2E9                    0.632416285126729        -0.4213729779128972
4.23E9                   0.5922318911732045       -0.4754971235046222
4.26E9                   0.5474461632299171       -0.5258001849411275
4.29E9                   0.4984210264777893       -0.5718912417754675
4.32E9                   0.44555193354822187      -0.6134137506690238
4.35E9                   0.3892645362763066       -0.6500484114673858
4.38E9                   0.33001116255035523      -0.6815157285228093
4.41E9                   0.26826709326984804      -0.7075782770840955
4.44E9                   0.20452662984643055      -0.728042657731666
4.47E9                   0.13929895411638907      -0.7427611000014268
4.5E9                    0.07310380380984363      -0.751632665517668
4.53E9                   0.006467010234626436     -0.7546040028203937
4.56E9                   -0.06008403478444429     -0.7516696189938152
4.59E9                   -0.12602490251634216     -0.7428716544127072
4.62E9                   -0.19083855792693907     -0.7282991730444348
4.65E9                   -0.2540196225964208      -0.708087007365945
4.68E9                   -0.31507841642255097     -0.6824142178641738
4.71E9                   -0.373544755058001       -0.651502235164918
4.74E9                   -0.42897151121576216     -0.6156127429761291
4.77E9                   -0.4809379684944337      -0.5750453331787274
4.8E9                    -0.529052996477662       -0.5301349294660168
4.83E9                   -0.572958053245418       -0.4812489473128325
4.86E9                   -0.6123299839638563      -0.42878414896772626
4.89E9                   -0.6468835464432505      -0.3731631680881233
4.92E9                   -0.6763735708339944      -0.3148307153224282
4.95E9                   -0.7005966599199658      -0.2542495219239153
4.98E9                   -0.7193923592936106      -0.19189612064672845
5.01E9                   -0.7326437683514981      -0.1282565907965054
5.04E9                   -0.7402776149957254      -0.06382240057214474
5.07E9                   -0.7422638689734614      9.135390417029E-4
5.1E9                    -0.7386150085819999      0.06546053810361228
5.13E9                   -0.729385069793567       0.12933349997193994
5.16E9                   -0.7146685856595012      0.19205605667691492
5.19E9                   -0.6945994674598088      0.25316356581380095
5.22E9                   -0.6693498040818889      0.31220606964868813
5.25E9                   -0.6391284933237887      0.36875127060023594
5.28E9                   -0.6041795997051967      0.42238749885153654
5.31E9                   -0.5647803710143536      0.4727265741571016
5.34E9                   -0.5212389238741936      0.5194064325938025
5.37E9                   -0.4738916884719072      0.5620934163877834
5.4E9                    -0.42310074571558076     0.6004841966196044
5.43E9                   -0.36925117889276615     0.6343073793758359
5.46E9                   -0.3127485059669883      0.6633249010238016
5.49E9                   -0.25401618478395704     0.6873333295006998
5.52E9                   -0.19349311950082626     0.706165158154348
5.55E9                   -0.13163106033244354     0.7196901220796939
5.58E9                   -0.06889178553715425     0.7278165024370458
5.61E9                   -0.005743981524904563    0.7304923267974925
5.64E9                   0.05734021248526773      0.7277063337450302
5.67E9                   0.11988896236273217      0.7194885562833999
5.7E9                    0.18143469623330954      0.7059103989791073
5.73E9                   0.24151810179262034      0.6870841413155736
5.76E9                   0.2996919866923518       0.6631618847801003
5.79E9                   0.35552486027648555      0.6343340462047776
5.82E9                   0.40860417601434523      0.6008275481995748
5.85E9                   0.45853926647129467      0.5629038452277716
5.88E9                   0.5049640630957389       0.5208568586404478
5.91E9                   0.5475396968198002       0.47501081169047066
5.94E9                   0.5859570299764773       0.4257178964525011
5.97E9                   0.6199391053775174       0.3733556891906951
6.0E9                    0.6492434446861556       0.31832425392287095
