% Model:              three_layers reality at 0.1mm.mph
% Version:            COMSOL 5.6.0.280
% Date:               Mar 8 2022, 10:38
% Table:              表格 1 - 全局计算 1
% freq (Hz)              real(emw.S11) (1)        imag(emw.S11) (1)
300000000                0.4069769309705688       -0.7738668048140857
330000000                0.3231926799841638       -0.8097397918729516
360000000                0.23646725485558076      -0.8367665278710039
390000000                0.14770312897032714      -0.854703221098643
420000000                0.05782825571051475      -0.8634008712316747
450000000                -0.03221560297467381     -0.8628072723106315
480000000                -0.12148414659602552     -0.8529678213873958
510000000                -0.20904148140507264     -0.8340251619103971
540000000                -0.29397073764894444     -0.8062176922793178
570000000                -0.37538431485910756     -0.7698769750524413
600000000                -0.4524336869548152      -0.7254240895668032
630000000                -0.5243186886975938      -0.673364979104541
660000000                -0.5902962002937183      -0.6142848527963979
690000000                -0.6496881473721793      -0.5488417116412375
720000000                -0.701888737314868       -0.4777590768224205
750000000                -0.7463708589111763      -0.4018180069495997
780000000                -0.7826915801760346      -0.32184849845860003
810000000                -0.8104966888427527      -0.2387203695094609
840000000                -0.8295242298758606      -0.15333373403245842
870000000                -0.839607006219281       -0.06660917593022055
900000000                -0.8406740205245584      0.020522263153156167
930000000                -0.8327508479582146      0.10712916764827368
960000000                -0.8159589426278141      0.19228978892065796
990000000                -0.7905138924597139      0.2751019293016657
1020000000               -0.7567226495662001      0.3546925589273485
1050000000               -0.7149797747795015      0.43022705866611705
1080000000               -0.6657627462176013      0.5009179879135593
1110000000               -0.6096263920816334      0.5660332827420824
1140000000               -0.5471965173619759      0.6249037975392282
1170000000               -0.47916280266949746     0.6769301118383849
1200000000               -0.4062710607957984      0.7215885335616955
1230000000               -0.3293149427554629      0.7584362400605398
1260000000               -0.2491271901704674      0.7871155088778281
1290000000               -0.16657053446823034     0.8073570012580863
1320000000               -0.08252834599048775     0.8189820725324776
1350000000               0.0021048629859780734    0.8219040948787198
1380000000               0.08643297693354485      0.8161287889777209
1410000000               0.16956775470856         0.8017535721172667
1440000000               0.25063814547501534      0.7789659408424965
1470000000               0.3287993457582415       0.7480409163436015
1500000000               0.40324150487599764      0.7093375903562475
1530000000               0.473197991212499        0.6632948182449976
1560000000               0.5379531379771303       0.6104261140903544
1590000000               0.5968493937154673       0.5513138101049259
1620000000               0.6492938104186529       0.4866025491835318
1650000000               0.6947638098231942       0.41699218524596776
1680000000               0.7328121769587306       0.34323017079369866
1710000000               0.7630712385783198       0.2661035151954867
1740000000               0.7852561931987311       0.18643040012501363
1770000000               0.7991675685345196       0.10505154088779889
1800000000               0.8046927915462899       0.022821383368926453
1830000000               0.8018068656742128       -0.05940077328415341
1860000000               0.7905721593638035       -0.14075963918855092
1890000000               0.7711373194162594       -0.22041269424568655
1920000000               0.7437353320456531       -0.29753876306690813
1950000000               0.7086807635533362       -0.37134632555395053
1980000000               0.6663662208595377       -0.44108149158406074
2010000000               0.617258079041153        -0.5060355778541342
2040000000               0.5618915271951952       -0.5655522375419823
2070000000               0.5008649828969656       -0.6190341094267428
2100000000               0.43483391542804245      -0.6659489711680453
2130000000               0.3645040931192757       -0.7058353978140754
2.16E9                   0.29062422441259755      -0.7383079309365436
2.19E9                   0.21397789397995073      -0.7630617352589454
2.22E9                   0.13537461904800577      -0.7798766250016715
2.25E9                   0.055639821467553044     -0.7886201452696734
2.28E9                   -0.024396359602464914    -0.7892490994303325
2.31E9                   -0.10391105465248317     -0.7818086507935025
2.34E9                   -0.18210032126549738     -0.7664282234780082
2.37E9                   -0.2581885949694895      -0.743314278709466
2.4E9                    -0.3314341505879672      -0.7127416080548854
2.43E9                   -0.40113037248922795     -0.6750460647565625
2.46E9                   -0.4666050409346957      -0.630621189156912
2.49E9                   -0.5272211055628058      -0.5799187629287386
2.52E9                   -0.58238124819565        -0.5234507846266715
2.55E9                   -0.6315359712948437      -0.4617897571894813
2.58E9                   -0.6741931413935607      -0.39556558164069666
2.61E9                   -0.7099268200334848      -0.3254591900778213
2.64E9                   -0.7383841683289868      -0.2521940538138495
2.67E9                   -0.7592901902446823      -0.17652675357018244
2.7E9                    -0.772450607217561       -0.09923739972945081
2.73E9                   -0.777753277079299       -0.021120279149233305
2.76E9                   -0.7751684916528454      0.05702515266021227
2.79E9                   -0.7647483660797438      0.13440292745902202
2.82E9                   -0.746625436885707       0.21022888733516032
2.85E9                   -0.7210105281332373      0.28373868219246245
2.88E9                   -0.6881899176867338      0.35419542802330384
2.91E9                   -0.6485218273138916      0.42089699355681615
2.94E9                   -0.6024322621725412      0.4831828702441947
2.97E9                   -0.5504102319071252      0.5404405734603227
3.0E9                    -0.49300239385999645     0.5921115206658826
3.03E9                   -0.4308071674908687      0.6376963334489641
3.06E9                   -0.36446837690328043     0.6767595144348073
3.09E9                   -0.29466848519221456     0.7089334559926113
3.12E9                   -0.22212148956725006     0.733921745189101
3.15E9                   -0.14756554983519407     0.7515017378817439
3.18E9                   -0.07175542427259654     0.7615263837333138
3.21E9                   0.004545213489041445     0.7639252923583045
3.24E9                   0.08057150516289387      0.7587050380688078
3.27E9                   0.15556511792797656      0.7459487060280201
3.3E9                    0.22878186897937847      0.7258146856592923
3.33E9                   0.2994992012407437       0.6985347181426361
3.36E9                   0.36702344628297934      0.6644112046060173
3.39E9                   0.4306968062537013       0.6238137817180838
3.42E9                   0.48990397906302263      0.5771751737785189
3.45E9                   0.5440783408502131       0.5249863372321202
3.48E9                   0.5927075889601652       0.4677909267983224
3.51E9                   0.6353387405817635       0.4061791330977764
3.54E9                   0.6715823808993968       0.34078096929781876
3.57E9                   0.7011160641876337       0.272259115842457
3.6E9                    0.7236867941857362       0.2013014623206557
3.63E9                   0.7391125453041831       0.1286135072445573
3.66E9                   0.7472828288920678       0.05491078449456968
3.69E9                   0.748158351626093        -0.019088522374086214
3.72E9                   0.7417698497161513       -0.09267063665918995
3.75E9                   0.7282162110548587       -0.1651328017206189
3.78E9                   0.7076620198082119       -0.23578936800912467
3.81E9                   0.6803346764208084       -0.3039773087334782
3.84E9                   0.6465212570268897       -0.3690611683779993
3.87E9                   0.6065652683416207       -0.4304375105489198
3.9E9                    0.560863413853581        -0.48753899623809693
3.93E9                   0.5098624101270567       -0.5398382683589249
3.96E9                   0.45405579152432324      -0.5868518189015303
3.99E9                   0.39398054769347335      -0.6281439590306648
4.02E9                   0.3302133845549907       -0.6633309102143957
4.05E9                   0.26336640752746804      -0.6920849163481493
4.08E9                   0.19408209370987387      -0.7141381800712745
4.11E9                   0.12302752470505177      -0.729286378985671
4.14E9                   0.050887961097732776     -0.7373915280142538
4.17E9                   -0.02164007618655415     -0.7383840122521642
4.2E9                    -0.09385600998438176     -0.7322636980431112
4.23E9                   -0.16506249060771624     -0.7191001136837929
4.26E9                   -0.23457258913903678     -0.6990317549242319
4.29E9                   -0.30171678323557205     -0.6722646033071371
4.32E9                   -0.3658496696356707      -0.639069946996718
4.35E9                   -0.42635637271304455     -0.5997815730026236
4.38E9                   -0.4826586309699031      -0.5547923706046348
4.41E9                   -0.5342205355613543      -0.5045503620992112
4.44E9                   -0.5805538754394496      -0.4495541674185395
4.47E9                   -0.6212230230798349      -0.39034791547859216
4.5E9                    -0.655849280839022       -0.32751563395109434
4.53E9                   -0.6841146053083378      -0.2616751742279665
4.56E9                   -0.7057646360725874      -0.19347175391116378
4.59E9                   -0.7206109748631766      -0.12357122025472936
4.62E9                   -0.7285326887703928      -0.05265315058598455
4.65E9                   -0.7294770430131877      0.018596093657921833
4.68E9                   -0.7234594986934278      0.0894902561060417
4.71E9                   -0.7105630310912225      0.15934994087218943
4.74E9                   -0.6909368272655653      0.2275091893658545
4.77E9                   -0.6647944060046284      0.29332186035969937
4.8E9                    -0.6324111746170608      0.35616780496878303
4.83E9                   -0.5941214089246724      0.41545881532749696
4.86E9                   -0.5503146295703788      0.4706442946568028
4.89E9                   -0.5014313582363455      0.5212165596190145
4.92E9                   -0.44795827050127185     0.5667156587200094
4.95E9                   -0.39042280880152813     0.6067335838138648
4.98E9                   -0.3293873663636533      0.6409177696361645
5.01E9                   -0.2654431892855449      0.6689738156817073
5.04E9                   -0.19920416003906266     0.6906674186944386
5.07E9                   -0.13130061602206541     0.7058255622081147
5.1E9                    -0.062373319884890144    0.7143370591725334
5.13E9                   0.006932360558880646     0.7161525701181094
5.16E9                   0.0759720714381702       0.7112842104220379
5.19E9                   0.14410795079920824      0.6998048137267389
5.22E9                   0.21071403783384499      0.6818468485194192
5.25E9                   0.2751816495314145       0.6576009210919409
5.28E9                   0.33692468874615217      0.627313773417135
5.31E9                   0.3953847747872919       0.5912857154503951
5.34E9                   0.45003605239941         0.5498675053734164
5.37E9                   0.5003895569635368       0.50345677190239
5.4E9                    0.5459970820009165       0.4524941205187835
5.43E9                   0.586454576027753        0.39745906037469714
5.46E9                   0.6214051542487585       0.338865837404648
5.49E9                   0.6505418263244196       0.27725918741971717
5.52E9                   0.6736100147916627       0.21320995898519277
5.55E9                   0.6904098841902162       0.1473105187690617
5.58E9                   0.7007984370985447       0.08016984868078825
5.61E9                   0.7046912761376309       0.012408272216820978
5.64E9                   0.7020638923818222       -0.05534819957964713
5.67E9                   0.6929523299527202       -0.12247384312186012
5.7E9                    0.6774531016559057       -0.18834938706865667
5.73E9                   0.6557222932931212       -0.2523681810074473
5.76E9                   0.6279738830875392       -0.31394216775388545
5.79E9                   0.5944773883570111       -0.3725074986662893
5.82E9                   0.5555549976578501       -0.42752971502265036
5.85E9                   0.5115783313836028       -0.47850850984539495
5.88E9                   0.4629649079027367       -0.5249821406968144
5.91E9                   0.4101743134741126       -0.5665315625623423
5.94E9                   0.35370402207838475      -0.6027843015875429
5.97E9                   0.29408480430301903      -0.6334180266321638
6.0E9                    0.23187569516445983      -0.6581637262298129
