% Model:              three_layers reality at 0.1mm.mph
% Version:            COMSOL 5.6.0.280
% Date:               Mar 9 2022, 15:32
% Table:              表格 1 - 全局计算 1
% freq (Hz)              real(emw.S11) (1)        imag(emw.S11) (1)
300000000                0.5840916363069084       -0.7705811168143966
330000000                0.5113338889458756       -0.8198512271222116
360000000                0.43454523854180993      -0.8623339440189954
390000000                0.35434596699401094      -0.8977005154544042
420000000                0.2713756597467823       -0.9256812416735182
450000000                0.18630032073671643      -0.9460607910032585
480000000                0.09980469175582396      -0.9586826085966849
510000000                0.012586890317223444     -0.9634509888665473
540000000                -0.07464722281109602     -0.9603325914489704
570000000                -0.16118983543169707     -0.9493573662147251
600000000                -0.2463370708351449      -0.9306188842834555
630000000                -0.32939491344194044     -0.904274076220071
660000000                -0.4096851173495008      -0.8705423786273523
690000000                -0.4865510384103673      -0.8297042947329534
720000000                -0.559363333580283       -0.7820993773772205
750000000                -0.6275254683858219      -0.7281236486779864
780000000                -0.6904789761066139      -0.6682264753336068
810000000                -0.747708412339271       -0.602906924691037
840000000                -0.7987459510486624      -0.5327096323978239
870000000                -0.8431755709264913      -0.4582202191458438
900000000                -0.8806367851720055      -0.38006029831617866
930000000                -0.9108278712835407      -0.2988821240438972
960000000                -0.9335085644511785      -0.21536293121124417
990000000                -0.9485021821754391      -0.13019902658405913
1020000000               -0.955697156270767       -0.04409969027952729
1050000000               -0.9550479540962858      0.04221904698952953
1080000000               -0.9465753793492913      0.128040686992216
1110000000               -0.9303662497417537      0.21265454021670488
1140000000               -0.9065724570897293      0.29536192963820324
1170000000               -0.8754094225339293      0.3754822578885653
1200000000               -0.8371539674792866      0.4523588743897926
1230000000               -0.7921416271053796      0.5253646843375281
1260000000               -0.7407634404659977      0.593907443778945
1290000000               -0.6834622562557485      0.6574346905851008
1320000000               -0.6207285988787465      0.7154382663718099
1350000000               -0.5530961431202526      0.767458390546151
1380000000               -0.48113684958470393     0.8130872534280634
1410000000               -0.4054558147781657      0.8519721027269821
1440000000               -0.32668589196939773     0.8838178034591947
1470000000               -0.24548213902401655     0.9083888584740079
1500000000               -0.1625161494798343      0.9255108830915214
1530000000               -0.07847032188545083     0.9350715333364574
1560000000               0.005967878581572173     0.9370208930455679
1590000000               0.09011161565970892      0.9313713305903276
1620000000               0.17328028545108795      0.9181968404594377
1650000000               0.2548049830018373       0.897631889425849
1680000000               0.3340337901812898       0.8698697905018083
1710000000               0.4103368465581982       0.8351606310058761
1740000000               0.483111169051063        0.7938087835769445
1770000000               0.551785190285327        0.7461700307580709
1800000000               0.6158229885381659       0.6926483354362496
1830000000               0.6747281867788509       0.6336922901106958
1860000000               0.7280475010533796       0.5697912787511232
1890000000               0.7753739223716686       0.5014713849864089
1920000000               0.8163495188717346       0.42929108042100594
1950000000               0.8506678480862967       0.35383672657914234
1980000000               0.878075971674808        0.27571792338174506
2010000000               0.8983760672818214       0.19556273650855097
2040000000               0.9114266343324883       0.1140128353922964
2070000000               0.9171432923381826       0.031718573120063896
2100000000               0.9154991724224697       -0.05066596174345667
2130000000               0.9065249040189951       -0.1324878912923665
2.16E9                   0.8903082006408369       -0.21310046343638023
2.19E9                   0.8669930499988219       -0.29186790765452403
2.22E9                   0.8367785154594558       -0.36817020360518243
2.25E9                   0.7999171572724099       -0.4414077359632607
2.28E9                   0.756713083479594        -0.511005810107629
2.31E9                   0.7075196412235258       -0.576419005180623
2.34E9                   0.6527367594784078       -0.6371353429086427
2.37E9                   0.5928079525319383       -0.6926802532342791
2.4E9                    0.5282169894259628       -0.7426203193091679
2.43E9                   0.45948422739607         -0.7865667825598432
2.46E9                   0.3871625978136166       -0.8241787802061531
2.49E9                   0.31183322615101494      -0.8551662672797047
2.52E9                   0.2341006741267398       -0.8792925416155237
2.55E9                   0.154587828744506        -0.8963762517306041
2.58E9                   0.07393054012770506      -0.9062927521610439
2.61E9                   -0.0072277922359191395   -0.9089747209979505
2.64E9                   -0.08824143081616996     -0.9044120899979187
2.67E9                   -0.1684671244700347      -0.8926515067108968
2.7E9                    -0.2472685609243217      -0.8737956256604283
2.73E9                   -0.32402067247024197     -0.8480024189969075
2.76E9                   -0.39811407749435884     -0.8154844626509639
2.79E9                   -0.46895980773774        -0.7765079641375731
2.82E9                   -0.5359942632094502      -0.7313912730669503
2.85E9                   -0.5986841999946538      -0.6805027269640037
2.88E9                   -0.6565315380178333      -0.6242578241486819
2.91E9                   -0.7090778326673908      -0.5631158038284044
2.94E9                   -0.7559083237234093      -0.4975757397337608
2.97E9                   -0.7966555237808696      -0.428172242627864
3.0E9                    -0.8310023310121102      -0.35547084666277173
3.03E9                   -0.8586846583184964      -0.2800631374660013
3.06E9                   -0.8794935705208456      -0.20256167096769886
3.09E9                   -0.8932769199869881      -0.1235947292096658
3.12E9                   -0.8999404716583911      -0.043800959169839455
3.15E9                   -0.8994485102384906      0.03617605678678531
3.18E9                   -0.8918239264401917      0.11569324906579158
3.21E9                   -0.8771477839953077      0.19411347677409135
3.24E9                   -0.8555583745473643      0.2708108601376504
3.27E9                   -0.8272497731968586      0.345175979290582
3.3E9                    -0.7924699128626143      0.41662089116226203
3.33E9                   -0.7515182006941326      0.48458391841080195
3.36E9                   -0.7047427043169545      0.5485341678294505
3.39E9                   -0.6525369399881599      0.6079757387942233
3.42E9                   -0.5953362980317949      0.662451586875972
3.45E9                   -0.53361414438501        0.7115470114058486
3.48E9                   -0.46787763947445093     0.7548927406502015
3.51E9                   -0.3986633177347786      0.792167593001827
3.54E9                   -0.3265324727534753      0.8231006973706823
3.57E9                   -0.2520663938608113      0.8474732611812205
3.6E9                    -0.17586150032237013     0.8651198795902051
3.63E9                   -0.09852441892269895     0.8759293847062897
3.66E9                   -0.02066704947189617     0.8798452387359742
3.69E9                   0.05709833943629086      0.8768654797451085
3.72E9                   0.13416394478193042      0.8670422326670428
3.75E9                   0.20993115754057837      0.8504808012910564
3.78E9                   0.2838151523729492       0.82733835878841
3.81E9                   0.3552493087533162       0.797822255118686
3.84E9                   0.4236894355821328       0.7621879598674176
3.87E9                   0.48861777159093034      0.7207366593915877
3.9E9                    0.5495467339863552       0.6738125282127407
3.93E9                   0.6060223862610695       0.6217996975664981
3.96E9                   0.6576275962419583       0.5651189486094154
3.99E9                   0.7039848571650169       0.5042241641332968
4.02E9                   0.7447587492695785       0.4395985795770697
4.05E9                   0.7796580279750988       0.37175087960162717
4.08E9                   0.8084373360219296       0.3012111885156317
4.11E9                   0.8308985491827507       0.2285269990268232
4.14E9                   0.8468917740861969       0.15425907526657676
4.17E9                   0.8563160203913015       0.07897735355442442
4.2E9                    0.8591195659492268       0.0032568534903542794
4.23E9                   0.8553000254088595       -0.072326394281109
4.26E9                   0.8449041240022194       -0.14719939646925162
4.29E9                   0.828027173516118        -0.2207962090793279
4.32E9                   0.8048122483535765       -0.29256189403437033
4.35E9                   0.7754490645437294       -0.3619563982514524
4.38E9                   0.7401725695908546       -0.4284583352552355
4.41E9                   0.6992612528197878       -0.49156865344632533
4.44E9                   0.6530351828910377       -0.5508141800573012
4.47E9                   0.6018537738829572       -0.6057510293854439
4.5E9                    0.5461132763149069       -0.6559678601217475
4.53E9                   0.4862439882652552       -0.7010889586597275
4.56E9                   0.4227071856498166       -0.7407771169216961
4.59E9                   0.3559917780930073       -0.7747362678957883
4.62E9                   0.28661070748598333      -0.8027138396119032
4.65E9                   0.21509711618097782      -0.8245027910701543
4.68E9                   0.14200032060824858      -0.8399432995806135
4.71E9                   0.06788163129313407      -0.8489240777647504
4.74E9                   -0.00668993779561582     -0.8513833079024936
4.77E9                   -0.08114203018881999     -0.8473091899942036
4.8E9                    -0.15490334220887975     -0.8367401055235959
4.83E9                   -0.22740802264059987     -0.8197644009973004
4.86E9                   -0.29810005053012717     -0.7965197938960481
4.89E9                   -0.36643756581559245     -0.7671924006769303
4.92E9                   -0.4318971249613401      -0.7320153841149346
4.95E9                   -0.49397784884967        -0.691267217395293
4.98E9                   -0.552205425537395       -0.6452695654356463
5.01E9                   -0.6061359261134748      -0.594384789782819
5.04E9                   -0.6553593906750144      -0.539013090465274
5.07E9                   -0.6995031413857697      -0.47958930622050566
5.1E9                    -0.7382347824036976      -0.4165794022648405
5.13E9                   -0.7712648510960021      -0.3504766821783878
5.16E9                   -0.7983490921093067      -0.2817977665054397
5.19E9                   -0.8192903348631069      -0.21107838412456448
5.22E9                   -0.8339399646814393      -0.13886902221928607
5.25E9                   -0.8421989856618174      -0.06573047642912226
5.28E9                   -0.8440186771543902      0.007770663909421299
5.31E9                   -0.8394008443750567      0.08106656602669525
5.34E9                   -0.8283976592790729      0.1535927116476053
5.37E9                   -0.8111110838285068      0.2247924306950167
5.4E9                    -0.787691868023153       0.2941213710752858
5.43E9                   -0.7583381208428943      0.3610518569150301
5.46E9                   -0.7232934624240434      0.4250770829529167
5.49E9                   -0.6828447778442899      0.4857150923706902
5.52E9                   -0.6373196042927427      0.5425124899819174
5.55E9                   -0.5870831927224908      0.5950478504244939
5.58E9                   -0.5325352916912384      0.6429347913132702
5.61E9                   -0.4741067039988048      0.6858246935301482
5.64E9                   -0.4122556651188828      0.7234090636494543
5.67E9                   -0.34746408538112994     0.7554215445606675
5.7E9                    -0.2802336860098678      0.7816395866101327
5.73E9                   -0.21108204584487844     0.8018857895155712
5.76E9                   -0.1405385674145508      0.8160289146152814
5.79E9                   -0.06914037304785818     0.823984552846317
5.82E9                   0.0025718447761507337    0.8257154244487919
5.85E9                   0.07405797610280303      0.8212312892297682
5.88E9                   0.14478259269096724      0.810588461955939
5.91E9                   0.21421893592532035      0.7938889492149228
5.94E9                   0.2818527470175747       0.7712792422370618
5.97E9                   0.347185911125402        0.7429488081984162
6.0E9                    0.40973990391977555      0.7091283200215082
