% Model:              three_layers reality at 0.1mm.mph
% Version:            COMSOL 5.6.0.280
% Date:               Feb 28 2022, 09:12
% Table:              表格 1 - 全局计算 1
% freq (Hz)              real(emw.S11) (1)        imag(emw.S11) (1)
300000000                0.6187558804112264       -0.7515487123623796
330000000                0.5506124231074445       -0.8025287464628804
360000000                0.47836872388087087      -0.8473607878588194
390000000                0.4025699878467718       -0.8857196106313441
420000000                0.32379144324108683      -0.9173263632392612
450000000                0.24262863871831117      -0.9419533928123139
480000000                0.15969483115504204      -0.959425005393336
510000000                0.0756165009630669       -0.9696189218517152
540000000                -0.008971367926714892    -0.9724673857604756
570000000                -0.09343009820992113     -0.9679578267741443
600000000                -0.17712217883159642     -0.9561330779044589
630000000                -0.25941613075485714     -0.9370911473103952
660000000                -0.3396913400171577      -0.9109845480277479
690000000                -0.4173428169086686      -0.8780191923531601
720000000                -0.4917858423142204      -0.8384528600239067
750000000                -0.5624604634852453      -0.7925932529233676
780000000                -0.6288358012923356      -0.7407956520853991
810000000                -0.6904141350166586      -0.6834601954448458
840000000                -0.7467347292259507      -0.6210287989288173
870000000                -0.7973773729774885      -0.5539817448852979
900000000                -0.8419656010851366      -0.4828339655458086
930000000                -0.8801695705982269      -0.4081310527666759
960000000                -0.9117085698301303      -0.3304450249370328
990000000                -0.9363531383973198      -0.2503698868874994
1020000000               -0.9539267813534975      -0.16851701898561433
1050000000               -0.9643072637229562      -0.08551043272825028
1080000000               -0.9674274749222112      -0.0019819326831847315
1110000000               -0.963275856982993       0.08143377604743852
1140000000               -0.9518963936979681      0.1641039948122535
1170000000               -0.9333881618956392      0.2454029116839491
1200000000               -0.9079044498041814      0.32471641677977303
1230000000               -0.8756514512023559      0.4014468122057796
1260000000               -0.836886547336869       0.4750173798449453
1290000000               -0.7919161928207853      0.5448767693241063
1320000000               -0.7410934238486757      0.6105031728770065
1350000000               -0.6848150114438201      0.6714082532788995
1380000000               -0.6235182841419026      0.7271407954281222
1410000000               -0.557677647725783       0.7772900536881449
1440000000               -0.48780083172972444     0.821488770191883
1470000000               -0.4144248942890716      0.8594158423914063
1500000000               -0.3381120186126418      0.8907986212136401
1530000000               -0.25944513582577183     0.9154148242675726
1560000000               -0.17902340951362616     0.9330940522331668
1590000000               -0.0974576184703043      0.9437188994621561
1620000000               -0.01536547405408726     0.9472256534719444
1650000000               0.06663309124185748      0.9436045812185555
1680000000               0.14792062734841488      0.93289980322189
1710000000               0.22788682698426577      0.9152087599525279
1740000000               0.30593310772185733      0.890681277710585
1770000000               0.38147708142302383      0.8595182443762628
1800000000               0.45395687913732524      0.8219699079860088
1830000000               0.522835299915194        0.7783338138407535
1860000000               0.587603754153821        0.7289523982338761
1890000000               0.6477859741630877       0.674210259083057
1920000000               0.702941466197676        0.6145311259085189
1950000000               0.752668680579923        0.5503745534178275
1980000000               0.7966078788559753       0.48223236456733043
2010000000               0.8344436790405858       0.4106248705091649
2040000000               0.8659072624870469       0.3360968961886621
2070000000               0.890778228535444        0.2592136411803909
2100000000               0.908886085520085        0.18055640624202934
2130000000               0.9201113689750611       0.10071821752558661
2.16E9                   0.9243863811870782       0.020299379259820716
2.19E9                   0.9216955480899561       -0.06009701250191353
2.22E9                   0.9120753925091567       -0.13986956283316063
2.25E9                   0.8956141253402159       -0.21842304605867963
2.28E9                   0.8724508587233128       -0.2951728171732893
2.31E9                   0.8427744477733299       -0.3695491357226488
2.34E9                   0.8068219697904809       -0.441001372026458
2.37E9                   0.7648768520812205       -0.5090020664873465
2.4E9                    0.717266661004837        -0.5730508145181156
2.43E9                   0.664360566391363        -0.6326779498925862
2.46E9                   0.6065664963188244       -0.6874480000796398
2.49E9                   0.5443279981275019       -0.7369628863560083
2.52E9                   0.478120823978103        -0.7808648392401147
2.55E9                   0.4084492653740318       -0.8188389966888915
2.58E9                   0.33584227101912956      -0.8506156532217335
2.61E9                   0.2608493950614168       -0.8759721357962431
2.64E9                   0.1840366295931297       -0.8947343003096153
2.67E9                   0.10598216710415223      -0.9067776636642654
2.7E9                    0.027272115863533133     -0.9120281955939822
2.73E9                   -0.05150383025789332     -0.9104627823774681
2.76E9                   -0.12975676906059394     -0.9021093503006276
2.79E9                   -0.2069029984539361      -0.8870466204020323
2.82E9                   -0.2823684174934125      -0.8654034688793086
2.85E9                   -0.35559286888871056     -0.8373578838208675
2.88E9                   -0.42603437237037717     -0.8031355260952111
2.91E9                   -0.4931732062335377      -0.7630079126285451
2.94E9                   -0.5565158020981985      -0.7172902444263258
2.97E9                   -0.6155984235784699      -0.6663389023687784
3.0E9                    -0.6699906029112436      -0.6105486336607834
3.03E9                   -0.7192983110829019      -0.5503494526095488
3.06E9                   -0.7631668388668529      -0.48620328039741056
3.09E9                   -0.8012833675559533      -0.418600350448281
3.12E9                   -0.8333792103799486      -0.34805540777752
3.15E9                   -0.8592317081779426      -0.2751037320487592
3.18E9                   -0.8786657651169719      -0.20029701642090292
3.21E9                   -0.8915550137358071      -0.12419913462078201
3.24E9                   -0.8978226013078592      -0.04738183021021464
3.27E9                   -0.8974415928847584      0.029579637974180784
3.3E9                    -0.8904349894304975      0.10611085920949237
3.33E9                   -0.8768753628331432      0.18164260920159275
3.36E9                   -0.856884112585274       0.2556151289856265
3.39E9                   -0.8306303520870761      0.3274823112436236
3.42E9                   -0.7983294354826039      0.39671576171323786
3.45E9                   -0.7602411388347659      0.46280870461656953
3.48E9                   -0.7166675120423366      0.5252797027755731
3.51E9                   -0.6679504206398867      0.5836761644271168
3.54E9                   -0.6144687987889975      0.6375776111911788
3.57E9                   -0.5566356369723011      0.6865986836209821
3.6E9                    -0.494894729834863       0.7303918631543299
3.63E9                   -0.4297172112328605      0.7686498918909268
3.66E9                   -0.36159790474724907     0.8011078743939068
3.69E9                   -0.29105151927905776     0.8275450482094739
3.72E9                   -0.21860871967653026     0.8477862129063262
3.75E9                   -0.14481210308840087     0.8617028099230327
3.78E9                   -0.07021211167415604     0.8692136483225668
3.81E9                   0.004637087392573314     0.8702852739733271
3.84E9                   0.0791817242285978       0.8649319822517976
3.87E9                   0.15287252011868127      0.8532154766538653
3.9E9                    0.22516872297610907      0.8352441782411134
3.93E9                   0.2955420542687266       0.8111721934089853
3.96E9                   0.3634805381810242       0.7811979502625781
3.99E9                   0.42849218480798434      0.745562516736791
4.02E9                   0.49010850040881665      0.7045476166288399
4.05E9                   0.5478878001559409       0.6584733624001061
4.08E9                   0.6014183016481085       0.6076957256708155
4.11E9                   0.6503209801580919       0.5526037679016482
4.14E9                   0.6942521699332368       0.4936166539373195
4.17E9                   0.7329058976671657       0.431180471232492
4.2E9                    0.7660159362126336       0.36576487695044524
4.23E9                   0.7933575670664766       0.29785959560393843
4.26E9                   0.8147490412704109       0.22797079041975998
4.29E9                   0.8300527294647471       0.15661733304476888
4.32E9                   0.839175953835736        0.08432699764417884
4.35E9                   0.8420714973215081       0.011632605972233463
4.38E9                   0.8387377879699205       -0.06093184971705178
4.41E9                   0.8292187586563735       -0.13283507932199465
4.44E9                   0.8136033841516647       -0.20355233770833783
4.47E9                   0.7920248988153062       -0.2725692120203218
4.5E9                    0.7646596996297164       -0.33938532808913474
4.53E9                   0.7317259409831952       -0.40351795020039316
4.56E9                   0.6934818296871964       -0.4645054484419509
4.59E9                   0.6502236314643874       -0.5219106075505096
4.62E9                   0.6022834028493862       -0.5753237522204607
4.65E9                   0.5500264652685658       -0.6243656649407927
4.68E9                   0.4938486406020548       -0.6686902743059725
4.71E9                   0.43417326975795145      -0.707987093871356
4.74E9                   0.37144803737484405      -0.7419833942882237
4.77E9                   0.3061416268621157       -0.7704460939551875
4.8E9                    0.23874023063334474      -0.7931833558261175
4.83E9                   0.16974394072707694      -0.8100458801000787
4.86E9                   0.09966304517506508      -0.8209278842881264
4.89E9                   0.029014256178602517     -0.8257677636359196
4.92E9                   -0.0416831031915617      -0.8245484265623816
4.95E9                   -0.11191092635007145     -0.8172973016907795
4.98E9                   -0.18115613605396652     -0.8040860152740749
5.01E9                   -0.2489144539147665      -0.785029740518917
5.04E9                   -0.31469409753101196     -0.7602862230619611
5.07E9                   -0.3780193762738524      -0.7300544898876045
5.1E9                    -0.4384341576230122      -0.6945732518714172
5.13E9                   -0.4955051769639677      -0.6541190130966563
5.16E9                   -0.5488251652802262      -0.6090039029033276
5.19E9                   -0.598015771471501       -0.5595732489317156
5.22E9                   -0.6427302582051017      -0.5062029114216368
5.25E9                   -0.682655952699284       -0.4492964002090255
5.28E9                   -0.7175164360233626      -0.38928179651540334
5.31E9                   -0.7470734558831373      -0.3266085022989949
5.34E9                   -0.77112854917205        -0.26174384075805407
5.37E9                   -0.7895243616795793      -0.1951695330100498
5.4E9                    -0.8021456540791857      -0.12737807798017717
5.43E9                   -0.8089199858816172      -0.058869064199996296
5.46E9                   -0.8098180721965907      0.009854556212471414
5.49E9                   -0.8048538118171682      0.07829020053872615
5.52E9                   -0.7940839888073441      0.14593936469794067
5.55E9                   -0.7776076533288987      0.21231127877020117
5.58E9                   -0.7555651906691178      0.276926480407994
5.61E9                   -0.7281370901788088      0.3393202796263733
5.64E9                   -0.6955424279431284      0.3990460908990401
5.67E9                   -0.6580370781651097      0.4556786110755515
5.7E9                    -0.615911668683391       0.5088168234440072
5.73E9                   -0.5694892957549719      0.5580868097635295
5.76E9                   -0.519123013661925       0.6031443516386519
5.79E9                   -0.4651931159899489      0.6436773023210464
5.82E9                   -0.40810422857507506     0.6794077097321488
5.85E9                   -0.34828223799971153     0.7100936731302325
5.88E9                   -0.2861710826800975      0.7355309196016635
5.91E9                   -0.22222943541083362     0.7555540911603018
5.94E9                   -0.1569273054223153      0.7700377381464331
5.97E9                   -0.09074258643053064     0.7788970178622193
6.0E9                    -0.024157574959843765    0.7820880994110612
