% Model:              three_layers reality at 0.1mm.mph
% Version:            COMSOL 5.6.0.280
% Date:               Mar 7 2022, 10:18
% Table:              表格 1 - 全局计算 1
% freq (Hz)              real(emw.S11) (1)        imag(emw.S11) (1)
300000000                0.5719522927538797       -0.7630847495321004
330000000                0.49967352861884146      -0.8111786378375374
360000000                0.4234915624784787       -0.8525209990284929
390000000                0.3440146861497073       -0.8867987256663146
420000000                0.2618793923129317       -0.9137512348022286
450000000                0.1777454386554146       -0.9331736687309091
480000000                0.0922906254944138       -0.9449194935760229
510000000                0.006205339727760695     -0.9489025049273538
540000000                -0.079813085591878       -0.9450982452499481
570000000                -0.16506614088546245     -0.9335448335605934
600000000                -0.2488599886072935      -0.9143432075634936
630000000                -0.3305113355522633      -0.8876567783967504
660000000                -0.409353273693843       -0.8537105006209149
690000000                -0.484741034730049       -0.8127893628771217
720000000                -0.5560576002400952      -0.765236309523407
750000000                -0.6227191125110867      -0.7114496073691163
780000000                -0.6841800284249293      -0.6518796783834233
810000000                -0.7399379629676625      -0.5870254236174752
840000000                -0.7895381689284323      -0.5174300705238037
870000000                -0.8325776034150181      -0.4436765813687104
900000000                -0.8687085357745229      -0.36638266535846936
930000000                -0.8976416550750305      -0.2861954438438073
960000000                -0.9191486419220395      -0.2037858211158913
990000000                -0.9330641745269559      -0.11984261865161937
1020000000               -0.939287346109833       -0.03506653313949989
1050000000               -0.9377824774576743      0.04983601817285391
1080000000               -0.928579316131153       0.1341591005458742
1110000000               -0.9117726211681365      0.2172034474940762
1140000000               -0.8875211398777045      0.29828256457531294
1170000000               -0.8560459906888914      0.376728687929233
1200000000               -0.8176284732245215      0.4518985362211456
1230000000               -0.7726073335632532      0.5231787983891588
1260000000               -0.721375518714017       0.5899913036640412
1290000000               -0.6643764601476919      0.6517978247045533
1320000000               -0.6020999306851028      0.7081044707628209
1350000000               -0.5350775233145866      0.7584656331727931
1380000000               -0.46387780342822726     0.8024874520421863
1410000000               -0.38910118836397767     0.8398307792009728
1440000000               -0.31137460928008354     0.8702136192834552
1470000000               -0.23134601119028045     0.8934130369535694
1500000000               -0.14967874636122377     0.9092665248506306
1530000000               -0.0670459153805453      0.9176728326371925
1560000000               0.01587529142987947      0.9185922631819832
1590000000               0.09840920211405813      0.9120464471406138
1620000000               0.17988717330013293      0.8981176117566648
1650000000               0.2596529580730977       0.8769473638485341
1680000000               0.33706789094862305      0.8487350104760009
1710000000               0.41151585269676866      0.8137354437560144
1740000000               0.48240798183215716      0.7722566186685541
1770000000               0.5491871031045277       0.724656654655313
1800000000               0.6113318475110955       0.6713405930580816
1830000000               0.6683604415137836       0.6127568436393352
1860000000               0.7198341472696055       0.5493933536479819
1890000000               0.7653603385583815       0.4817735334949325
1920000000               0.8045952007664724       0.41045197267414385
1950000000               0.8372460461867771       0.3360099794631951
1980000000               0.8630732390618147       0.25905097710395675
2010000000               0.8818917277725333       0.1801957883112849
2040000000               0.8935721846430216       0.10007783819885195
2070000000               0.8980417566734151       0.019338303343523395
2100000000               0.8952844329205569       -0.06137876912372669
2130000000               0.8853410352671838       -0.14143135421425032
2.16E9                   0.8683088369066806       -0.220184343586859
2.19E9                   0.8443408039065532       -0.29701444041977104
2.22E9                   0.8136444354890515       -0.37131505887643224
2.25E9                   0.7764801464500096       -0.4425012232565072
2.28E9                   0.7331590991266727       -0.5100144208896834
2.31E9                   0.6840403833628117       -0.5733272766899166
2.34E9                   0.6295275149160684       -0.6319478047930711
2.37E9                   0.5700644113736887       -0.6854229404905434
2.4E9                    0.506131240464012        -0.7333411899601738
2.43E9                   0.4382406097119468       -0.7753345793273378
2.46E9                   0.3669343031688843       -0.8110804162485906
2.49E9                   0.29278030029509877      -0.8403033714841857
2.52E9                   0.21636952733361436      -0.8627780001225567
2.55E9                   0.1383119195179061       -0.8783313883693604
2.58E9                   0.059231735005767665     -0.8868454644781331
2.61E9                   -0.02023765959986843     -0.8882586554837181
2.64E9                   -0.09945924640896636     -0.8825667954836658
2.67E9                   -0.1777978437512168      -0.869823336748415
2.7E9                    -0.2546255102619944      -0.8501389577912406
2.73E9                   -0.3293268171460117      -0.8236806473948844
2.76E9                   -0.4013039677971838      -0.7906703141231957
2.79E9                   -0.4699817477019692      -0.7513829481784465
2.82E9                   -0.5348122823123513      -0.7061443507125917
2.85E9                   -0.5952795733918886      -0.6553284427151486
2.88E9                   -0.6509037794505916      -0.5993541674156416
2.91E9                   -0.7012452027662013      -0.5386820048064846
2.94E9                   -0.7459079450731119      -0.47381012217570534
2.97E9                   -0.7845431951158166      -0.40527019003315295
3.0E9                    -0.8168521135536054      -0.3336228982265265
3.03E9                   -0.8425882844615556      -0.2594532114656699
3.06E9                   -0.8615597067431078      -0.18336540798218218
3.09E9                   -0.8736303040255745      -0.10597794803952339
3.12E9                   -0.87872093696104        -0.02791822195159388
3.15E9                   -0.8768099078576759      0.05018277124024748
3.18E9                   -0.8679329535988787      0.12769576249498157
3.21E9                   -0.8521827288104842      0.20399851706443684
3.24E9                   -0.8297077869799356      0.27848105377882093
3.27E9                   -0.8007110724470627      0.3505507305105078
3.3E9                    -0.7654479407514617      0.41963714947020847
3.33E9                   -0.7242237287095556      0.4851968385544974
3.36E9                   -0.6773908988777677      0.5467176676176518
3.39E9                   -0.6253457859289019      0.6037229608618394
3.42E9                   -0.5685249753575834      0.6557752684274551
3.45E9                   -0.5074013480962963      0.7024797619606555
3.48E9                   -0.44247982855409856     0.7434872204874796
3.51E9                   -0.37429287854476706     0.7784965750550319
3.54E9                   -0.30339578553357704     0.8072569839736405
3.57E9                   -0.2303617998781202      0.8295694160731563
3.6E9                    -0.15577718166398535     0.8452877274785311
3.63E9                   -0.08023622126007074     0.854319228140048
3.66E9                   -0.004336298342497535    0.8566247464567663
3.69E9                   0.0713269589346952       0.852218212472932
3.72E9                   0.1461643593423114       0.8411657908445953
3.75E9                   0.21959763141360328      0.823584603445279
3.78E9                   0.2910636664675758       0.7996410883926581
3.81E9                   0.3600184962452847       0.7695490475491771
3.84E9                   0.425940993797148        0.7335674370801972
3.87E9                   0.4883363030191106       0.6919979528828595
3.9E9                    0.5467390181018361       0.6451824521439073
3.93E9                   0.600716144402448        0.5935002337344356
3.96E9                   0.6498698716776631       0.5373651775030739
3.99E9                   0.6938401776037999       0.4772227228448328
4.02E9                   0.7323072573769412       0.41354665736709273
4.05E9                   0.7649937514753049       0.34683569032950623
4.08E9                   0.7916667258227807       0.27760980161644855
4.11E9                   0.8121393520091748       0.20640637929566805
4.14E9                   0.8262722405604497       0.1337761803680708
4.17E9                   0.833974394370204        0.06027916474028762
4.2E9                    0.8352037676234428       -0.013519741138073438
4.23E9                   0.8299674327977098       -0.08705489689736043
4.26E9                   0.8183213709681514       -0.15976417180259989
4.29E9                   0.8003699067814743       -0.23109310567409722
4.32E9                   0.7762648091622243       -0.3004989846189923
4.35E9                   0.7462040739100424       -0.36745481654700424
4.38E9                   0.7104303976979989       -0.4314531938867616
4.41E9                   0.6692293473959371       -0.4920100290571021
4.44E9                   0.6229272260119263       -0.5486681434231587
4.47E9                   0.5718886375314834       -0.6010006848894488
4.5E9                    0.5165137568168398       -0.6486143449319812
4.53E9                   0.45723531663784595      -0.6911523433664769
4.56E9                   0.3945153306245713       -0.7282971491914737
4.59E9                   0.3288415774318198       -0.7597729083749565
4.62E9                   0.26072387694513605      -0.78534755421988
4.65E9                   0.19069019266710044      -0.804834582639871
4.68E9                   0.11928259466977541      -0.8180944820215583
4.71E9                   0.04705311425146128      -0.8250358135508886
4.74E9                   -0.02544048409312527     -0.825615940714981
4.77E9                   -0.09763899338085286     -0.8198414049455889
4.8E9                    -0.16898609965685749     -0.8077679386399048
4.83E9                   -0.23893274110944507     -0.7895000999097604
4.86E9                   -0.30694146055174        -0.7651905092874286
4.89E9                   -0.372490708996524       -0.7350386703460874
4.92E9                   -0.43507904680686266     -0.6992893648008093
4.95E9                   -0.49422918186845977     -0.6582306268292919
4.98E9                   -0.5494917839784569      -0.6121913181865537
5.01E9                   -0.600449021410558       -0.5615383419467607
5.04E9                   -0.6467177787579947      -0.5066735452211455
5.07E9                   -0.6879525327811841      -0.4480303669775012
5.1E9                    -0.7238478812857734      -0.3860702843822007
5.13E9                   -0.7541407345196035      -0.3212790994216712
5.16E9                   -0.778612183737552       -0.25416309023556727
5.19E9                   -0.7970890548242044      -0.185245034641807
5.22E9                   -0.8094451376732155      -0.11506010568487648
5.25E9                   -0.815602062813722       -0.044151645637974295
5.28E9                   -0.815529786009852       0.026933154381254567
5.31E9                   -0.8092466475771088      0.09764761703977204
5.34E9                   -0.7968189952548967      0.16744991402431048
5.37E9                   -0.778360388558593       0.23580730418920473
5.4E9                    -0.754030425620399       0.3022002216034026
5.43E9                   -0.7240332417046483      0.3661261862190762
5.46E9                   -0.6886157207383907      0.42710353290460845
5.49E9                   -0.6480654433176093      0.4846749669275096
5.52E9                   -0.6027083752532043      0.5384109530950439
5.55E9                   -0.5529062868186936      0.5879129344854509
5.58E9                   -0.49905388792877176     0.6328163600320487
5.61E9                   -0.44157566896083633     0.6727934831152168
5.64E9                   -0.38092245005041453     0.7075558793228223
5.67E9                   -0.3175676615957465      0.7368566242860071
5.7E9                    -0.25200340264576226     0.7604920752596587
5.73E9                   -0.184736346488522       0.7783032155611357
5.76E9                   -0.11628357581891358     0.7901765484600902
5.79E9                   -0.04716842620209186     0.7960445593008484
5.82E9                   0.02208360517239587      0.7958857895602856
5.85E9                   0.0909488593870833       0.7897245733104445
5.88E9                   0.15890942440090045      0.7776304736110211
5.91E9                   0.22545696241370072      0.7597174325495559
5.94E9                   0.2900964583992304       0.7361426273697571
5.97E9                   0.3523498746777456       0.7071050155888321
6.0E9                    0.4117596784484482       0.6728435554930763
