% Model:              three_layers reality at 0.1mm.mph
% Version:            COMSOL 5.6.0.280
% Date:               Feb 24 2022, 21:32
% Table:              表格 1 - 全局计算 1
% freq (Hz)              real(emw.S11) (1)        imag(emw.S11) (1)
300000000                0.5397586603313578       -0.7272424538655125
330000000                0.47117501012440344      -0.7718353669417803
360000000                0.3990426979758899       -0.8101055139367802
390000000                0.32392164793482153      -0.8417618608011402
420000000                0.2464002325507087       -0.8665642591215317
450000000                0.16708954313227642      -0.8843258825175977
480000000                0.0866178091237666       -0.8949151829622572
510000000                0.005624868505770131     -0.8982573637193711
540000000                -0.07524335168343584     -0.8943353625536917
570000000                -0.15534035242566446     -0.8831903378663397
600000000                -0.2340245639187245      -0.8649216512951373
630000000                -0.31066480560134474     -0.839686342624815
660000000                -0.3846456706467736      -0.8076980959241293
690000000                -0.4553727949956268      -0.769225699889814
720000000                -0.5222779678122703      -0.7245910098125383
750000000                -0.5848240380086744      -0.6741664235776197
780000000                -0.6425095708425617      -0.6183718892836505
810000000                -0.6948732090116254      -0.5576714674096163
840000000                -0.7414976938156794      -0.4925694760429229
870000000                -0.7820135047438801      -0.4236062524168772
900000000                -0.8161020783833717      -0.35135356961482983
930000000                -0.843498571917594       -0.27640975140925245
960000000                -0.8639941408674892      -0.19939453263790533
990000000                -0.8774377060412397      -0.12094371587002906
1020000000               -0.8837371903591418      -0.04170367806266351
1050000000               -0.8828602123344962      0.0376742169863877
1080000000               -0.8748342294284929      0.11653924336290314
1110000000               -0.8597461310045873      0.19424691742839914
1140000000               -0.8377412871981097      0.2701645247238746
1170000000               -0.8090220664359826      0.3436765136611857
1200000000               -0.7738458405691325      0.41418970214959466
1230000000               -0.7325225024142189      0.4811382463081706
1260000000               -0.6854115259062395      0.5439883238733588
1290000000               -0.6329186037939136      0.6022424892348796
1320000000               -0.5754919022020791      0.6554436614030971
1350000000               -0.5136179745842687      0.703178711743393
1380000000               -0.4478173806721518      0.7450816232965158
1410000000               -0.3786400577538605      0.780836199413014
1440000000               -0.30666049311157306     0.8101783048556901
1470000000               -0.23247274685008712     0.8328976282891318
1500000000               -0.1566853741926332      0.8488389605019079
1530000000               -0.07991629560073683     0.8579029879489193
1560000000               -0.002787661601226077    0.8600466061727001
1590000000               0.07407924264821375      0.8552827622185722
1620000000               0.1500690103991328       0.8436798393151496
1650000000               0.22457700387997603      0.8253606007687555
1680000000               0.2970140854439114       0.8005007132464436
1710000000               0.3668111552836415       0.7693268723426019
1740000000               0.43342346509090746      0.7321145555924171
1770000000               0.49633468033678096      0.689185429827494
1800000000               0.5550606669615682       0.6409044412333641
1830000000               0.6091529816505148       0.5876766173358966
1860000000               0.6582020478148284       0.5299436108263177
1890000000               0.7018400023382952       0.46818001544713933
1920000000               0.7397432009446995       0.4028894841714823
1950000000               0.7716343724749187       0.3346006798689621
1980000000               0.797284414847167        0.2638630882237961
2010000000               0.8165138275080612       0.19124272242574472
2040000000               0.829193777295457        0.11731774848064894
2070000000               0.8352467963817191       0.04267405959218951
2100000000               0.8346471127284009       -0.03209917249594227
2130000000               0.827420615100985        -0.10641394203587856
2.16E9                   0.8136444562538824       -0.17968782285743803
2.19E9                   0.7934462993765806       -0.251348325207193
2.22E9                   0.7670032144019114       -0.3208371704215425
2.25E9                   0.734540232108709        -0.38761445924348337
2.28E9                   0.6963285651140083       -0.4511627107075213
2.31E9                   0.6526835056008011       -0.5109907499228203
2.34E9                   0.6039620094941409       -0.5666374248961499
2.37E9                   0.5505599754028815       -0.6176751339295509
2.4E9                    0.4929092232094135       -0.6637131455655276
2.43E9                   0.43147417187791515      -0.7044006902167883
2.46E9                   0.3667482100143946       -0.7394297938969118
2.49E9                   0.2992497510156703       -0.768537806604506
2.52E9                   0.22951797627743353      -0.7915095516124241
2.55E9                   0.15810830677256613      -0.8081789970978139
2.58E9                   0.08558770876546512      -0.8184303526900758
2.61E9                   0.012530010249397705     -0.8221985513833183
2.64E9                   -0.06048857525609979     -0.8194691967043104
2.67E9                   -0.13289360687024487     -0.8102781794064668
2.7E9                    -0.2041163210085295      -0.7947111949428391
2.73E9                   -0.2735974971604644      -0.7729032690215473
2.76E9                   -0.3407915042254812      -0.7450381982153179
2.79E9                   -0.40517060405841526     -0.7113476826103629
2.82E9                   -0.4662294157220124      -0.6721099442021701
2.85E9                   -0.5234893521704408      -0.6276477396907865
2.88E9                   -0.5765028503782478      -0.5783257926190738
2.91E9                   -0.6248572772347227      -0.5245477314589051
2.94E9                   -0.6681784535839234      -0.4667526296232649
2.97E9                   -0.7061337757012907      -0.4054112263603809
3.0E9                    -0.7384349276600495      -0.3410218873427172
3.03E9                   -0.7648401800597185      -0.27410634970721737
3.06E9                   -0.7851562683196864      -0.20520528974464614
3.09E9                   -0.7992398417238313      -0.1348737503133591
3.12E9                   -0.8069984744403862      -0.06367646623770001
3.15E9                   -0.808391231619636       0.00781687198110456
3.18E9                   -0.8034287870025042      0.07903637394134427
3.21E9                   -0.7921730927263697      0.14941668136981442
3.24E9                   -0.7747366066780609      0.21840163294640527
3.27E9                   -0.7512810874747287      0.28544881911100556
3.3E9                    -0.7220159717547697      0.3500339853542864
3.33E9                   -0.6871963527289945      0.4116552446272184
3.36E9                   -0.647120582921216       0.46983706179151064
3.39E9                   -0.6021275275515391      0.5241339760701337
3.42E9                   -0.5525934982114374      0.5741340305652471
3.45E9                   -0.49892889925675177     0.6194618814462164
3.48E9                   -0.44157462172752115     0.6597815631307177
3.51E9                   -0.3809982215210789      0.6947988898058082
3.54E9                   -0.31768992009286745     0.724263477730633
3.57E9                   -0.2521584668546204      0.7479703771870964
3.6E9                    -0.18492690293490172     0.7657613073068181
3.63E9                   -0.11652826567452196     0.7775254915429695
3.66E9                   -0.047501272377770576    0.7832000958379125
3.69E9                   0.02161397986792526      0.7827702756053864
3.72E9                   0.09028026369901793      0.7762688410358698
3.75E9                   0.15796738834626645      0.7637755528339557
3.78E9                   0.224156254444247        0.7454160621980397
3.81E9                   0.2883427694783398       0.7213605098021142
3.84E9                   0.3500415978443494       0.6918217991056692
3.87E9                   0.4087897198133675       0.657053560190006
3.9E9                    0.4641497734691001       0.6173478219584826
3.93E9                   0.5157131533518717       0.5730324135421088
3.96E9                   0.563102840019084        0.5244681201372519
3.99E9                   0.6059759370662956       0.4720456239662724
4.02E9                   0.6440258970825212       0.4161822664886078
4.05E9                   0.6769844257914592       0.3573186718083881
4.08E9                   0.7046230631856041       0.29591527187423755
4.11E9                   0.7267544501175949       0.23244877000094424
4.14E9                   0.7432332953481375       0.16740857137714663
4.17E9                   0.7539570597317238       0.1012931992599842
4.2E9                    0.758866370390988        0.034606707325834034
4.23E9                   0.7579451707290858       -0.03214490506136752
4.26E9                   0.751220605553105        -0.09845726622781466
4.29E9                   0.7387626377370442       -0.16383118055539825
4.32E9                   0.7206833946707096       -0.22777613317588014
4.35E9                   0.6971362473596273       -0.2898137304535528
4.38E9                   0.6683146292166804       -0.34948105765755744
4.41E9                   0.6344506026092347       -0.40633393931160655
4.44E9                   0.5958131787251485       -0.4599500907096786
4.47E9                   0.5527063920416092       -0.5099321488010194
4.5E9                    0.5054671274859918       -0.5559105665707389
4.53E9                   0.45446269835749953      -0.5975463488422275
4.56E9                   0.4000881771399989       -0.6345336012590272
4.59E9                   0.3427634882806288       -0.6666018605012959
4.62E9                   0.2829302805502671       -0.6935181732997817
4.65E9                   0.22104860460966727      -0.7150888949323854
4.68E9                   0.15759342767468942      -0.7311611836887737
4.71E9                   0.09305102070946383      -0.741624175285976
4.74E9                   0.027915253960795108     -0.7464098289802469
4.77E9                   -0.03731616583035962     -0.7454934436545325
4.8E9                    -0.10214548755420907     -0.7388938461671212
4.83E9                   -0.1660787126977457      -0.7266732551742511
4.86E9                   -0.22862937543918918     -0.7089368220400725
4.89E9                   -0.28932228423272605     -0.6858318479401724
4.92E9                   -0.3476972007234396      -0.6575466746222659
4.95E9                   -0.403312427712579       -0.6243092468944784
4.98E9                   -0.45574827390616807     -0.5863853480106961
5.01E9                   -0.5046103604121738      -0.54407651414093
5.04E9                   -0.5495327328883051      -0.4977176402186325
5.07E9                   -0.5901807440517621      -0.4476742958404305
5.1E9                    -0.6262536737441744      -0.3943397761171881
5.13E9                   -0.6574870579416049      -0.3381319180347157
5.16E9                   -0.6836547040361086      -0.27948971728293953
5.19E9                   -0.7045703769662026      -0.21886978279570718
5.22E9                   -0.7200891481801043      -0.15674266550189417
5.25E9                   -0.7301084051090658      -0.09358909409202404
5.28E9                   -0.734568521007218       -0.029896145502022183
5.31E9                   -0.7334531833904143      0.03384662604184063
5.34E9                   -0.7267893755745899      0.09715107774711372
5.37E9                   -0.7146470031250898      0.1595343569436369
5.4E9                    -0.6971381580420295      0.22052273522087773
5.43E9                   -0.6744160190750356      0.27965535715957274
5.46E9                   -0.6466733953958075      0.33648785942153003
5.49E9                   -0.6141409307657004      0.39059581647915265
5.52E9                   -0.577084994434245       0.44157797334203136
5.55E9                   -0.5358052921658679      0.48905923235183757
5.58E9                   -0.49063223556693925     0.5326933695939844
5.61E9                   -0.44192410971045837     0.5721654661386807
5.64E9                   -0.39006407720844183     0.6071940491664956
5.67E9                   -0.3354570508749447      0.6375329461964591
5.7E9                    -0.2785264577319276      0.6629728594697641
5.73E9                   -0.21971090742486343     0.6833426647667
5.76E9                   -0.15946077300558414     0.6985104298995299
5.79E9                   -0.09823469552417273     0.7083841371613422
5.82E9                   -0.03649603592284336     0.7129120879675066
5.85E9                   0.02529068724816579      0.7120829721178584
5.88E9                   0.08666332575156961      0.7059255981835206
5.91E9                   0.14716554720347405      0.6945082993952183
5.94E9                   0.20635016043506768      0.6779380433136166
5.97E9                   0.2637822977602163       0.6563592788898647
6.0E9                    0.31904244429794526      0.6299525515555651
