% Model:              three_layers reality at 0.1mm.mph
% Version:            COMSOL 5.6.0.280
% Date:               Feb 24 2022, 21:34
% Table:              表格 1 - 全局计算 1
% freq (Hz)              real(emw.S11) (1)        imag(emw.S11) (1)
300000000                0.5394864972287001       -0.7275832456453103
330000000                0.4708408561611432       -0.7721631969240442
360000000                0.3986474384187325       -0.8104122490082463
390000000                0.3234670056753952       -0.8420394231002754
420000000                0.24588879738811542      -0.866804702208073
450000000                0.16652478568387644      -0.8845214789688621
480000000                0.08600408039283619      -0.8950585187082345
510000000                0.004967384977328138     -0.8983414360516129
540000000                -0.07593853705909943     -0.8943536790983642
570000000                -0.15606639275820627     -0.883137014235431
600000000                -0.23477387407805397     -0.8647915054228325
630000000                -0.31142913011432977     -0.8394749840015101
660000000                -0.3854161634318052      -0.8074020080239177
690000000                -0.45614010963790474     -0.768842314328571
720000000                -0.5230323575208926      -0.7241187708336864
750000000                -0.585555463954141       -0.6736048416714423
780000000                -0.6432078176410801      -0.6177215828194118
810000000                -0.695528005824483       -0.5569341914448349
840000000                -0.7420988396031558      -0.49174813750887075
870000000                -0.7825509959956958      -0.4227049112123547
900000000                -0.8165662376674816      -0.3503774252580827
930000000                -0.8438801755478711      -0.275365115094505
960000000                -0.8642845439461091      -0.19828878481079432
990000000                -0.8776289631758001      -0.1197852496229594
1020000000               -0.8838221703912654      -0.04050182885951468
1050000000               -0.8828327054950119      0.038909254570558244
1080000000               -0.8746890454210603      0.11779651093344745
1110000000               -0.8594791866524066      0.19551479905472274
1140000000               -0.8373496824185978      0.2714308629826991
1170000000               -0.8085041474771941      0.3449287340344417
1200000000               -0.7732012496351329      0.4154149442668083
1230000000               -0.7317522129484995      0.48232350053750644
1260000000               -0.6845178630575415      0.5451205715308922
1290000000               -0.6319052497545212      0.6033088447656957
1320000000               -0.5743638863242333      0.6564315148367179
1350000000               -0.512381648350395       0.7040758697760593
1380000000               -0.44648037785894745     0.7458764473076898
1410000000               -0.37721124018262575     0.7815177389134317
1440000000               -0.30514988272152        0.8107364248104295
1470000000               -0.2308914447758033      0.833323128983876
1500000000               -0.15504546785393922     0.849123688638777
1530000000               -0.07823075482770392     0.8580399378369616
1560000000               -0.0010702248758317268   0.8600300100150036
1590000000               0.07581419051592153      0.8551081686013582
1620000000               0.15180656796266379      0.8433441791928197
1650000000               0.22630188876788238      0.8248622403555119
1680000000               0.2987107747233022       0.799839493379825
1710000000               0.36846402916092275      0.7685041340188031
1740000000               0.4350169525672479       0.7311331515064575
1770000000               0.4978534054897168       0.6880497218838703
1800000000               0.5564895945291449       0.6396202841215688
1830000000               0.6104775606909044       0.5862513283317756
1860000000               0.6594083521413663       0.528385926166838
1890000000               0.7029148666246947       0.4665000336111922
1920000000               0.7406743512868993       0.4010985966299561
1950000000               0.7724105504228977       0.33271148977783116
1980000000               0.7978954938241749       0.2618893177814788
2010000000               0.8169509207051103       0.18919910955991348
2040000000               0.8294493361439589       0.11521993363639083
2070000000               0.8353146987779021       0.04053846347730123
2100000000               0.8345227402572721       -0.034255479326298785
2130000000               0.8271009185806307       -0.10857337683374156
2.16E9                   0.8131280089882047       -0.18183243454265288
2.19E9                   0.7927333375891351       -0.25345994344683004
2.22E9                   0.7660956644057155       -0.32289755884581584
2.25E9                   0.7334417238559805       -0.38960547171209026
2.28E9                   0.6950444318518951       -0.4530664495309613
2.31E9                   0.6512207694329644       -0.5127897249927774
2.34E9                   0.6023293527301021       -0.5683147126438429
2.37E9                   0.5487676975521069       -0.6192145351760256
2.4E9                    0.4909691834571698       -0.6650993413132529
2.43E9                   0.42939971669497173      -0.7056193944817052
2.46E9                   0.3645540852867992       -0.7404679025255497
2.49E9                   0.29695199780418857      -0.769383540584349
2.52E9                   0.22713380913992154      -0.7921525925898324
2.55E9                   0.15565597410411858      -0.8086106115964953
2.58E9                   0.08308633598225496      -0.8186435004461136
2.61E9                   0.00999942909186693      -0.8221879730480769
2.64E9                   -0.06302800543951506     -0.8192314778574373
2.67E9                   -0.1354211789097457      -0.8098117913248892
2.7E9                    -0.20661115545173328     -0.7940165162868029
2.73E9                   -0.2760387122512679      -0.7719825941819463
2.76E9                   -0.34315838268441273     -0.7438957365284812
2.79E9                   -0.4074427605460855      -0.7099895491842813
2.82E9                   -0.468386967700547       -0.6705441400195977
2.85E9                   -0.5255130943454825      -0.6258841174493468
2.88E9                   -0.5783744307748804      -0.5763760052280207
2.91E9                   -0.6265593717454911      -0.5224251614618917
2.94E9                   -0.6696949355707997      -0.4644722991799366
2.97E9                   -0.7074498775478072      -0.4029896884085653
3.0E9                    -0.7395373916549656      -0.3384770991520385
3.03E9                   -0.7657173964402411      -0.27145753035563575
3.06E9                   -0.7857983986731245      -0.20247276327003425
3.09E9                   -0.7996389262833101      -0.13207877633744283
3.12E9                   -0.8071485220515874      -0.06084105995611552
3.15E9                   -0.8082882913861745      0.010670128440818242
3.18E9                   -0.803071000860734       0.08188452684175701
3.21E9                   -0.7915607284037294      0.15223660522085233
3.24E9                   -0.7738720707345781      0.22117023288652302
3.27E9                   -0.750168918350969       0.28814323366429107
3.3E9                    -0.7206628129657354      0.3526317875617254
3.33E9                   -0.6856109065852961      0.4141346394861873
3.36E9                   -0.6453135453354771      0.47217707811460063
3.39E9                   -0.6001115047112716      0.5263146508950292
3.42E9                   -0.5503829060532711      0.5761365844071265
3.45E9                   -0.49653984684278324     0.6212688827977672
3.48E9                   -0.4390247797707515      0.6613770807506731
3.51E9                   -0.3783066774321979      0.6961686314924725
3.54E9                   -0.3148770209999674      0.7253949144529236
3.57E9                   -0.2492456521825206      0.7488528515844024
3.6E9                    -0.18193652814282013     0.7663861257768978
3.63E9                   -0.11348341885843248     0.7778859992859113
3.66E9                   -0.04442558541158253     0.7832917344399792
3.69E9                   0.02469652394454638      0.782590622909601
3.72E9                   0.09334552537203962      0.7758176332252088
3.75E9                   0.16099126680569606      0.7630546888178728
3.78E9                   0.22711488169113708      0.7444295905205146
3.81E9                   0.29121270193532267      0.7201145983775725
3.84E9                   0.35280000404234163      0.6903246881822312
3.87E9                   0.4114145628546899       0.6553154989581448
3.9E9                    0.46661998692361667      0.6153809892906872
3.93E9                   0.5180088092244042       0.5708508234112349
3.96E9                   0.5652053074103925       0.5220875123737202
3.99E9                   0.6078680301062183       0.4694833411831428
4.02E9                   0.6456920107406937       0.4134571182341784
4.05E9                   0.6784106582502301       0.3544507872936043
4.08E9                   0.7057973237280791       0.2929259428143001
4.11E9                   0.72766655172539         0.2293602853537333
4.14E9                   0.7438750316277365       0.16424404574175241
4.17E9                   0.7543222660804517       0.09807639665404881
4.2E9                    0.7589509695817477       0.03136186182984929
4.23E9                   0.7577472031955015       -0.03539327052161207
4.26E9                   0.7507402446629605       -0.1016845218432112
4.29E9                   0.7380021903010654       -0.16701277138660842
4.32E9                   0.7196472869134873       -0.23088775968167746
4.35E9                   0.6958309966081289       -0.29283152683585084
4.38E9                   0.6667488016370225       -0.35238176707858465
4.41E9                   0.63263475739248         -0.4090950850886452
4.44E9                   0.5937597991280515       -0.46255014274181727
4.47E9                   0.5504298036268426       -0.5123506845578011
4.5E9                    0.5029834037928982       -0.5581284259946593
4.53E9                   0.45178955413512406      -0.5995457824383946
4.56E9                   0.39724484919085584      -0.6362984105171
4.59E9                   0.3397706040514386       -0.6681175295477897
4.62E9                   0.2798097146964009       -0.6947719905548875
4.65E9                   0.21782332402855237      -0.7160700633625683
4.68E9                   0.15428732579277843      -0.7318609182236591
4.71E9                   0.08968874207739433      -0.742035786037776
4.74E9                   0.02452201052549832      -0.7465287890490031
4.77E9                   -0.04071478526563972     -0.7453174405467402
4.8E9                    -0.10552371301253008     -0.738422816105982
4.83E9                   -0.16941079221941813     -0.7259093998240485
4.86E9                   -0.23188977613247896     -0.7078846073549467
4.89E9                   -0.2924858936207251      -0.684497984969449
4.92E9                   -0.35073952682058646     -0.6559400821914025
4.95E9                   -0.40620979626210396     -0.6224409961358284
4.98E9                   -0.4584780211370301      -0.5842685888163299
5.01E9                   -0.5071510195973365      -0.5417263837282683
5.04E9                   -0.5518642129256515      -0.4951511541731651
5.07E9                   -0.5922844982297936      -0.44491022221491544
5.1E9                    -0.6281128568431371      -0.3913984934378057
5.13E9                   -0.6590866698899367      -0.33503525832801717
5.16E9                   -0.6849817184687922      -0.27626079552994803
5.19E9                   -0.7056138532273123      -0.21553281449249437
5.22E9                   -0.7208403256230429      -0.15332277416927848
5.25E9                   -0.7305607788343514      -0.09011211071513577
5.28E9                   -0.7347178985085647      -0.026388401820959806
5.31E9                   -0.7332977217804019      0.0373585085086134
5.34E9                   -0.7263295992131564      0.10064040118063744
5.37E9                   -0.7138858015242561      0.16297456149859857
5.4E9                    -0.6960807639694228      0.2238876123520191
5.43E9                   -0.6730699668604865      0.2829192601658869
5.46E9                   -0.6450484596026921      0.33962590926526093
5.49E9                   -0.6122490456337414      0.3935841008437634
5.52E9                   -0.5749401548040475      0.44439373684932426
5.55E9                   -0.5334234369321318      0.4916810559261684
5.58E9                   -0.48803111505439994     0.5351013371128512
5.61E9                   -0.4391231386600001      0.5743413167688058
5.64E9                   -0.3870841752989256      0.6091213141303635
5.67E9                   -0.33232047279170307     0.6391970691373228
5.7E9                    -0.2752566147244583      0.6643612999897658
5.73E9                   -0.21633218210232974     0.6844449850120301
5.76E9                   -0.15599832881867748     0.6993183642035817
5.79E9                   -0.09471428217491945     0.7088916447054471
5.82E9                   -0.03294379189691252     0.7131153882509325
5.85E9                   0.02884843368678336      0.711980562929095
5.88E9                   0.090200255499275        0.7055182558149293
5.91E9                   0.15065554734029335      0.6937990611122452
5.94E9                   0.20976751745033068      0.6769321724865137
5.97E9                   0.26710188517493166      0.6550642135934399
6.0E9                    0.32223990320259244      0.6283778377486722
