% Model:              three_layers reality at 0.1mm.mph
% Version:            COMSOL 5.6.0.280
% Date:               Mar 10 2022, 10:03
% Table:              表格 1 - 全局计算 1
% freq (Hz)              real(emw.S11) (1)        imag(emw.S11) (1)
300000000                0.5958784811991062       -0.7862840987891794
330000000                0.5211722805139879       -0.8380189479234078
360000000                0.44202291294039747      -0.882685311409063
390000000                0.35909480620189904      -0.9199020487860023
420000000                0.2730854972113237       -0.949349776750835
450000000                0.1847199755025109       -0.9707738904879719
480000000                0.09474472450746614      -0.9839870690106052
510000000                0.0039215081642812065    -0.9888712333252649
540000000                -0.08697904789407662     -0.9853789294781361
570000000                -0.17718402674305533     -0.9735341118991703
600000000                -0.2659248857431513      -0.9534323070486774
630000000                -0.3524441575765213      -0.9252401423597075
660000000                -0.43600212415414474     -0.8891942312312475
690000000                -0.5158833982865388      -0.845599411410741
720000000                -0.5914033471626301      -0.7948263408752805
750000000                -0.6619142903752337      -0.7373084629462726
780000000                -0.7268114059762945      -0.6735383599206642
810000000                -0.7855382790986559      -0.6040635225198869
840000000                -0.8375920301978914      -0.5294815703097325
870000000                -0.8825279636813964      -0.4504349655856794
900000000                -0.9199636817247789      -0.36760527124096337
930000000                -0.9495826144153103      -0.2817070089706242
960000000                -0.9711369233569509      -0.1934811810328088
990000000                -0.9844497436916365      -0.1036885234084971
1020000000               -0.9894167374959135      -0.013102562566125107
1050000000               -0.9860069402598871      0.07749744892019306
1080000000               -0.974262891286715       0.16733364078542776
1110000000               -0.9543000481247333      0.25563660008274186
1140000000               -0.9263054944449082      0.34165233560365355
1170000000               -0.8905359598314416      0.42464905694505656
1200000000               -0.847315178681088       0.5039236962204726
1230000000               -0.7970306234833031      0.5788081049277471
1260000000               -0.7401296551617649      0.6486748636286501
1290000000               -0.6771151396285824      0.7129426483201281
1320000000               -0.6085405853099529      0.7710811041187334
1350000000               -0.535004860809097       0.8226151843893741
1380000000               -0.4571465553354053      0.8671289211127764
1410000000               -0.3756380466717666      0.9042686003331625
1440000000               -0.29117934285826685     0.9337453243355592
1470000000               -0.20449176355940796     0.955336950217845
1500000000               -0.11631152652593553     0.9688894018518082
1530000000               -0.027383302603511163    0.9743173594363177
1560000000               0.06154619974562756      0.9716043373610367
1590000000               0.1497345626775621       0.9608021670423883
1620000000               0.23644984598404264      0.9420299066574258
1650000000               0.32097658311146626      0.9154722042433673
1680000000               0.402621540839426        0.8813771444613643
1710000000               0.4807192019542559       0.8400536124140111
1740000000               0.5546369349040514       0.7918682103339496
1770000000               0.6237798190874244       0.7372417647378824
1800000000               0.6875950989715407       0.6766454628248925
1830000000               0.7455762445557081       0.6105966576127729
1860000000               0.7972665998652642       0.5396543815363332
1890000000               0.8422626050671984       0.4644146081039387
1920000000               0.8802165814696622       0.3855053008053663
1950000000               0.9108390721851571       0.30358128778814514
1980000000               0.9339007346722902       0.21931899981705874
2010000000               0.9492337847445924       0.1334111076999018
2040000000               0.9567329950472069       0.04656109343406282
2070000000               0.9563562543883691       -0.040522213574686765
2100000000               0.9481246973027698       -0.12713010840904496
2130000000               0.9321224147709799       -0.21255947083615778
2.16E9                   0.908495754907563        -0.2961182037084481
2.19E9                   0.8774522126676821       -0.37713065145416275
2.22E9                   0.8392588849206334       -0.45494300924153236
2.25E9                   0.7942404281807491       -0.5289287270261106
2.28E9                   0.7427764090105626       -0.5984938695118917
2.31E9                   0.6852979155536882       -0.663082294087435
2.34E9                   0.6222833671674355       -0.7221803694032327
2.37E9                   0.5542536695388485       -0.7753208716258397
2.4E9                    0.4817671525174454       -0.8220858167954787
2.43E9                   0.4054148632489451       -0.8621083712986956
2.46E9                   0.32581653685781337      -0.8950744024858202
2.49E9                   0.24361702886423267      -0.92072430043963
2.52E9                   0.15948260316369023      -0.9388553074573447
2.55E9                   0.07409654027150055      -0.9493240742441499
2.58E9                   -0.011846081028738631    -0.9520489282499507
2.61E9                   -0.09764422873451153     -0.947011452736497
2.64E9                   -0.182597071136947       -0.9342572216231494
2.67E9                   -0.2660101774969819      -0.9138957188341804
2.7E9                    -0.34720161161646257     -0.8860995410816953
2.73E9                   -0.4255078444575743      -0.8511029791968208
2.76E9                   -0.5002894513092967      -0.8092000447229197
2.79E9                   -0.570936569558529       -0.7607419829449711
2.82E9                   -0.6368740904944392      -0.7061342988371518
2.85E9                   -0.6975665524700063      -0.64583331737501
2.88E9                   -0.7525226977689375      -0.580342300736972
2.91E9                   -0.8012996527442582      -0.5102071493810476
2.94E9                   -0.8435066906876577      -0.4360117195299646
2.97E9                   -0.8788085384468112      -0.35837279575051273
3.0E9                    -0.906928191306236       -0.27793476276694423
3.03E9                   -0.9276492050685458      -0.19536402588984197
3.06E9                   -0.9408174398968678      -0.11134323357344932
3.09E9                   -0.9463422367199265      -0.026565359042090952
3.12E9                   -0.9441970138475674      0.058272299732116964
3.15E9                   -0.9344192786351666      0.1424741412640307
3.18E9                   -0.9171100563084871      0.22535224237326462
3.21E9                   -0.8924327451743821      0.30623224127600013
3.24E9                   -0.8606114140722628      0.38445906469346114
3.27E9                   -0.8219285638384695      0.45940244491177895
3.3E9                    -0.7767223795560458      0.5304621764012938
3.33E9                   -0.7253835044017753      0.5970730655635627
3.36E9                   -0.6683513691494843      0.658709530926816
3.39E9                   -0.606110114069525       0.7148898145250474
3.42E9                   -0.5391841424351823      0.7651797681030187
3.45E9                   -0.46813334778342797     0.8091961800539611
3.48E9                   -0.3935480606965495      0.8466096113028687
3.51E9                   -0.31604376563212927     0.8771467110540154
3.54E9                   -0.23625564420536468     0.9005919874035154
3.57E9                   -0.15483300750156082     0.9167890142467656
3.6E9                    -0.07243368558864845     0.9256410650930079
3.63E9                   0.010281554539596983     0.9271111762709814
3.66E9                   0.09265449172859377      0.921221655258655
3.69E9                   0.17403476768574092      0.9080530628247501
3.72E9                   0.25378497942652894      0.8877427087835985
3.75E9                   0.33128549786157147      0.860482709898816
3.78E9                   0.40593897405578194      0.8265176652946293
3.81E9                   0.4771745070450608       0.7861420101400768
3.84E9                   0.5444514625323681       0.7396971112824311
3.87E9                   0.6072629499138671       0.6875681662583627
3.9E9                    0.6651389835267111       0.6301809564041378
3.93E9                   0.7176493669239836       0.567998484921924
3.96E9                   0.7644063406116889       0.5015175052816584
3.99E9                   0.8050670213707299       0.4312649217048481
4.02E9                   0.8393356377864993       0.35779402988732995
4.05E9                   0.8669655395524928       0.28168056730703456
4.08E9                   0.8877609362225137       0.20351855785295797
4.11E9                   0.9015783108984596       0.12391595923622852
4.14E9                   0.9083274574639142       0.04349014635368666
4.17E9                   0.9079721040066936       -0.03713671766096721
4.2E9                    0.9005301046618005       -0.11734236181952498
4.23E9                   0.8860732017350398       -0.19650907922312982
4.26E9                   0.864726374993315        -0.2740283396284252
4.29E9                   0.8366668028339515       -0.34930530455442194
4.32E9                   0.8021224604507595       -0.4217632194904571
4.35E9                   0.7613703749129148       -0.4908476666893325
4.38E9                   0.7147345495300255       -0.556030665324254
4.41E9                   0.662583563364812        -0.6168146037642462
4.44E9                   0.6053278484567866       -0.672735983422151
4.47E9                   0.5434166483280866       -0.7233689470712945
4.5E9                    0.47733466573929956      -0.7683285593852506
4.53E9                   0.4075984145422263       -0.8072738044891091
4.56E9                   0.33475229836500664      -0.8399102653059531
4.59E9                   0.2593644465140987       -0.8659924524670348
4.62E9                   0.1820223440468702       -0.8853257561829789
4.65E9                   0.10332829680576001      -0.8977680023956675
4.68E9                   0.023894772705211943     -0.9032306031984256
4.71E9                   -0.055660343130773886    -0.9016792989596324
4.74E9                   -0.1347185481229305      -0.8931344932556358
4.77E9                   -0.21266555198253256     -0.8776711802239192
4.8E9                    -0.28889611431417617     -0.8554184579828065
4.83E9                   -0.3628188644778428      -0.8265586144896588
4.86E9                   -0.4338610685287214      -0.7913257679539968
4.89E9                   -0.501473295078113       -0.7500040461895637
4.92E9                   -0.5651339199088091      -0.702925299137603
4.95E9                   -0.62435340215777        -0.6504663546319654
4.98E9                   -0.6786782650847162      -0.5930458461723195
5.01E9                   -0.7276947225349232      -0.5311206593220338
5.04E9                   -0.7710319072135434      -0.46518205685289815
5.07E9                   -0.8083646763870269      -0.3957515491369053
5.1E9                    -0.8394159911065785      -0.32337657327555663
5.13E9                   -0.8639588812147174      -0.2486260320662197
5.16E9                   -0.8818180149514497      -0.1720857251111641
5.19E9                   -0.8928708856022093      -0.09435368607635387
5.22E9                   -0.8970486103196657      -0.016035430948486782
5.25E9                   -0.8943363161491956      0.06226087150835219
5.28E9                   -0.8847730770086564      0.1399292749565685
5.31E9                   -0.8684513715880549      0.21637091776404727
5.34E9                   -0.8455160557254455      0.2909987956385361
5.37E9                   -0.8161628741679406      0.3632423674629961
5.4E9                    -0.7806365621564841      0.4325519353206483
5.43E9                   -0.7392285970806766      0.49840276777520054
5.46E9                   -0.6922746530353785      0.5602989614974183
5.49E9                   -0.6401517924117374      0.6177770513238408
5.52E9                   -0.5832754075970035      0.6704093799360762
5.55E9                   -0.5220959098930742      0.7178072280846242
5.58E9                   -0.4570951558907161      0.7596236896976631
5.61E9                   -0.3887826045832686      0.7955562584015895
5.64E9                   -0.31769121080300455     0.8253490769939469
5.67E9                   -0.24437308054129592     0.8487947930070787
5.7E9                    -0.16939493855699636     0.8657359655330463
5.73E9                   -0.09333348259323665     0.8760659841697525
5.76E9                   -0.016770712864482642    0.879729489692791
5.79E9                   0.05971067800579082      0.8767223205676544
5.82E9                   0.13553179228319223      0.8670910366872238
5.85E9                   0.21012186293547705      0.8509320799857621
5.88E9                   0.2829224382675289       0.8283906184787191
5.91E9                   0.3533914279300577       0.7996590948939964
5.94E9                   0.42100701622285613      0.7649754775863862
5.97E9                   0.48527143067415185      0.7246212000443546
6.0E9                    0.5457145351450882       0.6789187777422033
