% Model:              three_layers reality at 0.1mm.mph
% Version:            COMSOL 5.6.0.280
% Date:               Mar 2 2022, 16:02
% Table:              表格 1 - 全局计算 1
% freq (Hz)              real(emw.S11) (1)        imag(emw.S11) (1)
300000000                0.5961284966655          -0.7865440851638978
330000000                0.5213912885675864       -0.8383433783281407
360000000                0.44219840041102043      -0.8830695024976066
390000000                0.35921544185014653      -0.9203392903526506
420000000                0.27314133500817483      -0.9498316355710724
450000000                0.1847026109902986       -0.9712904995967047
480000000                0.09464741281933904      -0.9845274054253192
510000000                0.0037392488976360386    -0.9894233864211955
540000000                -0.08724945550174912     -0.9859303612775024
570000000                -0.177543956101926       -0.9740719098069376
600000000                -0.2663738812954177      -0.9539434289095401
630000000                -0.35297995823161854     -0.925711653132728
660000000                -0.4366207106390436      -0.8896135302354198
690000000                -0.5165790636412501      -0.8459544487037433
720000000                -0.5921687891502846      -0.7951058212268175
750000000                -0.6627407247172692      -0.7375020356163051
780000000                -0.7276886988349757      -0.6736367925629785
810000000                -0.7864550972423787      -0.6040588574098008
840000000                -0.8385360069244154      -0.5293672612459019
870000000                -0.883485878290127       -0.4502059940951786
900000000                -0.9209216503520535      -0.3672582406115448
930000000                -0.9505262896234034      -0.28124021519501424
960000000                -0.9720516998798456      -0.19289465982094775
990000000                -0.9853209675803121      -0.10298407280425298
1020000000               -0.9902299158585006      -0.012283741008796575
1050000000               -0.9867479487772082      0.07842534889962112
1080000000               -0.9749181767199225      0.16836364274188342
1110000000               -0.9548568231180067      0.25676011681109084
1140000000               -0.9267519220466007      0.34285926416605145
1170000000               -0.8908613253328055      0.42592789406844356
1200000000               -0.8475100465927539      0.5052616723181175
1230000000               -0.7970869776709704      0.5801913348323327
1260000000               -0.7400410205115914      0.6500885117707261
1290000000               -0.6768766838145096      0.7143711060975309
1320000000               -0.6081491996018636      0.7725081769657562
1350000000               -0.534459219179244       0.8240242860046916
1380000000               -0.45644715136008873     0.868503272330767
1410000000               -0.37478720818391986     0.905591430021104
1440000000               -0.2901812243748311      0.9350000698984513
1470000000               -0.2033523170776972      0.9565074552116667
1500000000               -0.11503845125012316     0.9699601084705499
1530000000               -0.025985974638183508    0.9752734936788174
1560000000               0.06305681666651904      0.9724320849094558
1590000000               0.15134602408435943      0.9614888380355829
1620000000               0.23814834969751325      0.9425640877546084
1650000000               0.3227471068713504       0.9158438965671106
1680000000               0.40444799283694216      0.8815778862160446
1710000000               0.48258458255080633      0.8400765851789374
1740000000               0.5565235077607611       0.7917083282366058
1770000000               0.6256692899847753       0.7368957458641552
1800000000               0.6894688005105423       0.6761118824520749
1830000000               0.7474153250412083       0.6098759829756899
1860000000               0.7990522147256315       0.538748987947919
1890000000               0.8439761091649466       0.4633287764227496
1920000000               0.8818397207673243       0.38424519630273535
1950000000               0.912354173316902        0.3021549204685817
1980000000               0.9352908909877158       0.2177361663059709
2010000000               0.9504830374373985       0.131683314757395
2040000000               0.9578265079652653       0.04470146293281703
2070000000               0.9572804809291843       -0.042499058375433864
2100000000               0.9488675374877549       -0.12920817590059847
2130000000               0.932673359903491        -0.21472155403707807
2.16E9                   0.9088460161192249       -0.29834605390067187
2.19E9                   0.8775948279790804       -0.37940517260410345
2.22E9                   0.8391887973506563       -0.4572444714736477
2.25E9                   0.7939545255509834       -0.5312369936049312
2.28E9                   0.7422735162564298       -0.6007886250641525
2.31E9                   0.6845787355687758       -0.6653432532519624
2.34E9                   0.6213503797822121       -0.7243874387392046
2.37E9                   0.5531110191393384       -0.7774542422337654
2.4E9                    0.4804205725127691       -0.8241259885223299
2.43E9                   0.40387168100945703      -0.8640361471491357
2.46E9                   0.3240857663133769       -0.8968709193510078
2.49E9                   0.2417095076509501       -0.9223711529106131
2.52E9                   0.15741110432988423      -0.9403347765249026
2.55E9                   0.07187580278144914      -0.9506194254118123
2.58E9                   -0.014199420135189557    -0.9531447243450238
2.61E9                   -0.10011178458510878     -0.9478938375589734
2.64E9                   -0.18515891453778172     -0.9349141534728
2.67E9                   -0.26864506565091606     -0.914317151668234
2.7E9                    -0.3498872291094197      -0.8862775602705231
2.73E9                   -0.42822104611016903     -0.8510319006678038
2.76E9                   -0.5030065037780528      -0.8088764845661406
2.79E9                   -0.5736333911282699      -0.7601649019767192
2.82E9                   -0.6395264891093472      -0.7053050245181818
2.85E9                   -0.7001504619969225      -0.6447555439906016
2.88E9                   -0.7550144118290518      -0.5790220680892841
2.91E9                   -0.8036760550435718      -0.5086527998548078
2.94E9                   -0.8457454802167075      -0.4342338335126676
2.97E9                   -0.8808884476848011      -0.3563841055020632
3.0E9                    -0.908829195321953       -0.2757500451902312
3.03E9                   -0.9293527193855788      -0.1929999749088728
3.06E9                   -0.9423065049823649      -0.10881831323271252
3.09E9                   -0.9476016870973318      -0.023899638677127816
3.12E9                   -0.9452136299938497      0.0610573266038968
3.15E9                   -0.9351819200438607      0.1453557524526771
3.18E9                   -0.9176097743413018      0.22830669493970845
3.21E9                   -0.8926628745748584      0.309234989689317
3.24E9                   -0.8605676422496661      0.38748498704959133
3.27E9                   -0.821608977266347       0.4624260749323783
3.3E9                    -0.7761274868061212      0.533457938990863
3.33E9                   -0.7245162355429868      0.6000155136087791
3.36E9                   -0.6672170513906751      0.6615735810555011
3.39E9                   -0.6047164236459746      0.7176509795309761
3.42E9                   -0.5375410329430425      0.767814383615811
3.45E9                   -0.4662529552611223      0.8116816230211861
3.48E9                   -0.39144458598508836     0.848924507661224
3.51E9                   -0.31373333481016874     0.8792711298013972
3.54E9                   -0.23375614826358318     0.9025076180830425
3.57E9                   -0.15216392306425297     0.9184793246550941
3.6E9                    -0.06961587917511007     0.9270914360125531
3.63E9                   0.013226035177728869     0.9283090101966828
3.66E9                   0.09570263465540876      0.9221564566741934
3.69E9                   0.17716281664933062      0.9087164886033847
3.72E9                   0.2569686502304318       0.8881285888125396
3.75E9                   0.3345001846373151       0.8605870400274926
3.78E9                   0.4091599393480545       0.8263385770314179
3.81E9                   0.480377051193539        0.7856797238418239
3.84E9                   0.5476110705457451       0.7389538813634707
3.87E9                   0.6103554178067004       0.6865482274181108
3.9E9                    0.6681405300316161       0.6288904785066392
3.93E9                   0.7205367396803244       0.5664455407201106
3.96E9                   0.7671569270646501       0.4997120503811841
3.99E9                   0.8076589732034979       0.42921878118167706
4.02E9                   0.8417480139250249       0.35552088239836155
4.05E9                   0.869178467824455        0.27919591632949875
4.08E9                   0.8897557890774653       0.20083968105026756
4.11E9                   0.9033378874275286       0.12106183023376255
4.14E9                   0.9098361629023572       0.0404813271377345
4.17E9                   0.9092161187300438       -0.04027821191295153
4.2E9                    0.901497536779134        -0.12059322133409445
4.23E9                   0.8867542198668215       -0.1998448765472448
4.26E9                   0.8651133200062635       -0.2774237199778549
4.29E9                   0.8367542787692366       -0.35273418572240617
4.32E9                   0.801907405496965        -0.42519899866763783
4.35E9                   0.7608521132422923       -0.49426343251972366
4.38E9                   0.713914824347614        -0.5593994141921594
4.41E9                   0.6614665510262651       -0.6201094593903981
4.44E9                   0.603920153117376        -0.6759304186911597
4.47E9                   0.5417272764653323       -0.726437006634333
4.5E9                    0.4753749799893925       -0.7712450812235961
4.53E9                   0.40538206658479903      -0.8100146383358509
4.56E9                   0.33229514095078017      -0.8424524856931468
4.59E9                   0.2566844252056498       -0.8683145641525004
4.62E9                   0.17913936957972076      -0.8874078899263895
4.65E9                   0.10026409933661427      -0.8995920993703527
4.68E9                   0.020672739265029175     -0.9047805868042116
4.71E9                   -0.05901534683719838     -0.9029412332515169
4.74E9                   -0.13818037092702157     -0.8940967274543736
4.77E9                   -0.21620696548692353     -0.8783244786235145
4.8E9                    -0.29248903670169357     -0.8557561139041058
4.83E9                   -0.36643460057098526     -0.8265765458282704
4.86E9                   -0.4374705661895386      -0.7910225906118505
4.89E9                   -0.5050474167067482      -0.749381120650981
4.92E9                   -0.5686437258688819      -0.7019867450460325
4.95E9                   -0.6277704406964586      -0.6492190287740209
4.98E9                   -0.6819748613231918      -0.5914992808319479
5.01E9                   -0.7308442577146816      -0.5292869605472984
5.04E9                   -0.7740090792508136      -0.4630757653416602
5.07E9                   -0.8111457341559319      -0.3933894695646804
5.1E9                    -0.8419789376507177      -0.32077758017189123
5.13E9                   -0.8662836447370099      -0.24581086094892646
5.16E9                   -0.8838865898039079      -0.16907675619090898
5.19E9                   -0.8946674473862114      -0.09117472489032129
5.22E9                   -0.8985596088390957      -0.012711487080459358
5.25E9                   -0.8955505476693258      0.06570380838652423
5.28E9                   -0.8856817344509859      0.14346446200780244
5.31E9                   -0.8690480697840505      0.2199710865953069
5.34E9                   -0.8457968298944737      0.2946363750542014
5.37E9                   -0.8161261532167304      0.3668896939779317
5.4E9                    -0.780283122741614       0.43618144489248334
5.43E9                   -0.7385615076339447      0.5019871658194676
5.46E9                   -0.6912992176127393      0.5638113733824578
5.49E9                   -0.6388755019111446      0.6211911603703121
5.52E9                   -0.5817079013216372      0.6736995629016322
5.55E9                   -0.5202489449880623      0.7209486983669684
5.58E9                   -0.45498257729977454     0.7625926560698008
5.61E9                   -0.3864203050194151      0.7983301026459071
5.64E9                   -0.3150970695172204      0.8279065483486385
5.67E9                   -0.24156687165576987     0.8511162121034817
5.7E9                    -0.16639820412200415     0.8678034268007728
5.73E9                   -0.09016937129870897     0.8778635447093088
5.76E9                   -0.013463790864354586    0.8812433349165668
5.79E9                   0.06313463450027364      0.8779409019136608
5.82E9                   0.13904601332122243      0.8680051825082877
5.85E9                   0.21369880444682876      0.8515350848928596
5.88E9                   0.28653400458782413      0.8286783172601577
5.91E9                   0.35700920116384705      0.7996299246044274
5.94E9                   0.4246024980907297       0.7646305269447666
5.97E9                   0.4888163012691152       0.7239642408644119
6.0E9                    0.5491809297403224       0.677956270136929
