% Model:              three_layers reality at 0.1mm.mph
% Version:            COMSOL 5.6.0.280
% Date:               Mar 21 2022, 15:29
% Table:              表格 1 - 全局计算 1
% freq (Hz)              real(emw.S11) (1)        imag(emw.S11) (1)
300000000                0.5948269809536516       -0.7870166788667813
330000000                0.5199499490730863       -0.838715086162734
360000000                0.4406287131635207       -0.8833191338861046
390000000                0.35753105284989106      -0.9204472696621414
420000000                0.27135792569326683      -0.9497800969278218
450000000                0.18283776431418242      -0.9710634077713425
480000000                0.09272046981428855      -0.9841106939766849
510000000                0.0017711492438767353    -0.988805105114265
540000000                -0.08923635244424127     -0.9851008255252934
570000000                -0.17952607165774986     -0.9730238456904111
600000000                -0.26832663963303666     -0.952672107975649
630000000                -0.35487802952787373     -0.9242150118204138
660000000                -0.4384382736836241      -0.8878922693800253
690000000                -0.5182900857117442      -0.8440121090762323
720000000                -0.5937473201028308      -0.7929488317523764
750000000                -0.6641612020408838      -0.7351397314029565
780000000                -0.7289262599875306      -0.6710814004057426
810000000                -0.7874858950594593      -0.6013254472202312
840000000                -0.8393375239121182      -0.5264736623054718
870000000                -0.8840372353958843      -0.44717267566044305
900000000                -0.9212039056453295      -0.3641081571964422
930000000                -0.9505227224932636      -0.27799861730861847
960000000                -0.9717480764062497      -0.1895888716110411
990000000                -0.9847057829303255      -0.09964323868571073
1020000000               -0.9892946098621519      -0.008938543835743334
1050000000               -0.9854870911737962      0.08174299495860536
1080000000               -0.973329619001461       0.17162092113506194
1110000000               -0.9529418143689865      0.25992365533277106
1140000000               -0.9245151867003316      0.3458954953027824
1170000000               -0.8883111013374653      0.4288034244225769
1200000000               -0.8446580830370952      0.5079436565340575
1230000000               -0.7939484915681339      0.5826478492406029
1260000000               -0.7366346129398388      0.6522889231719903
1290000000               -0.6732242162745784      0.7162864310199701
1320000000               -0.60427563195538        0.7741114270009138
1350000000               -0.5303924110097084      0.8252907950706359
1380000000               -0.4522176291636827      0.8694110019241764
1410000000               -0.3704279010425632      0.9061212489975259
1440000000               -0.2857271713259572      0.9351360055656892
1470000000               -0.19884034946492957     0.9562369130760656
1500000000               -0.11050685374528371     0.96927405831759
1530000000               -0.021474128663473025    0.9741666201765735
1560000000               0.0675088031621696       0.9709029013456935
1590000000               0.15569769661972704      0.9595397622675764
1620000000               0.2423592930760563       0.9402014798606628
1650000000               0.3267773329186408       0.9130780581096499
1680000000               0.4082583262717499       0.8784230214126568
1710000000               0.48613704132869184      0.8365507246305877
1740000000               0.5597816743963879       0.7878332161720616
1770000000               0.6285986704272593       0.732696692221948
1800000000               0.6920371675100476       0.6716175812916414
1830000000               0.7495930429816173       0.6051182990425961
1860000000               0.800812543180302        0.5337627134027024
1890000000               0.8452954826363861       0.4581513599407095
1920000000               0.8826980022592139       0.3789164469853447
1950000000               0.9127348796415554       0.2967166891590976
1980000000               0.9351813879253357       0.2122320071537291
2010000000               0.9498747031745435       0.12615812998080148
2040000000               0.9567148635179109       0.03920113412638453
2070000000               0.9556652867430735       -0.04792804905514196
2100000000               0.9467528559219893       -0.13451913099357368
2130000000               0.9300675840814403       -0.21986794880691188
2.16E9                   0.9057618665890388       -0.30328192371176216
2.19E9                   0.8740493197937745       -0.3840854968292643
2.22E9                   0.8352031812986507       -0.461625552732809
2.25E9                   0.7895542078245636       -0.5352768337744218
2.28E9                   0.7374879597117382       -0.6044473034430302
2.31E9                   0.6794413412705368       -0.6685833165218229
2.34E9                   0.6158983384329197       -0.7271743140312155
2.37E9                   0.5473851096843895       -0.7797566786869186
2.4E9                    0.47446487701304874      -0.8259165151108228
2.43E9                   0.3977331927076545       -0.865291509669159
2.46E9                   0.3178138965900523       -0.897572444373282
2.49E9                   0.23535553283592386      -0.9225049986006781
2.52E9                   0.1510276087534601       -0.9398920660378857
2.55E9                   0.06551615917184464      -0.9495962924968586
2.58E9                   -0.020481522770223217    -0.9515423113311311
2.61E9                   -0.10626277922378763     -0.9457182739629793
2.64E9                   -0.19112578111451822     -0.9321765243615622
2.67E9                   -0.2743757580691974      -0.9110334510153344
2.7E9                    -0.35533111060757944     -0.8824686190364699
2.73E9                   -0.43332933191773526     -0.8467232797143179
2.76E9                   -0.5077327056604442      -0.8040983254125946
2.79E9                   -0.5779337566275382      -0.7549517316131846
2.82E9                   -0.6433604279964076      -0.6996955131181074
2.85E9                   -0.7034809527806183      -0.638792216347955
2.88E9                   -0.7578083819516577      -0.5727509708640256
2.91E9                   -0.8059047289767431      -0.5021231277736067
2.94E9                   -0.8473846904914588      -0.4274975182546366
2.97E9                   -0.8819189044778917      -0.34949537160404226
3.0E9                    -0.9092367108830589      -0.26876493772657944
3.03E9                   -0.9291283842319317      -0.18597586403410737
3.06E9                   -0.9414468134160114      -0.10181338095520243
3.09E9                   -0.9461086102320343      -0.016972353497821474
3.12E9                   -0.9430946351506292      0.06784874145114353
3.15E9                   -0.9324499360301268      0.15195385128243158
3.18E9                   -0.9142831028119609      0.23465533655873094
3.21E9                   -0.8887650483456458      0.31527985318887
3.24E9                   -0.8561272321038216      0.39317407077476235
3.27E9                   -0.8166593494334462      0.4677101731982153
3.3E9                    -0.7707065139184308      0.5382910913725499
3.33E9                   -0.7186659644186406      0.604355422056051
3.36E9                   -0.6609833315260053      0.6653819904624614
3.39E9                   -0.5981485007982617      0.7208940178525995
3.42E9                   -0.5306911126061592      0.7704628581853089
3.45E9                   -0.45917574129330846     0.8137112702767644
3.48E9                   -0.3841968000193167      0.8503161942135954
3.51E9                   -0.3063732224000182      0.8800110035949648
3.54E9                   -0.226342977888695       0.9025872093955087
3.57E9                   -0.14475748400549762     0.9178955978033531
3.6E9                    -0.06227598385456208     0.9258467937763148
3.63E9                   0.02044003966818373      0.9264112540058259
3.66E9                   0.10273234233713319      0.9196187063084266
3.69E9                   0.18395122372457742      0.9055570653432232
3.72E9                   0.26346060092448215      0.8843708655178064
3.75E9                   0.340642802492663        0.8562592604742605
3.78E9                   0.41490304523531735      0.8214736451209816
3.81E9                   0.48567356889468294      0.7803149613230405
3.84E9                   0.5524174192759909       0.7331307509571996
3.87E9                   0.6146318884413756       0.6803120174296847
3.9E9                    0.6718516388295243       0.6222899456673644
3.93E9                   0.7236515506917123       0.5595325104258738
3.96E9                   0.7696493333296694       0.49254097719882967
3.99E9                   0.809507927780231        0.42184627655417917
4.02E9                   0.8429377047135653       0.34800521958357855
4.05E9                   0.8696984341599333       0.27159652388980876
4.08E9                   0.8896009819860264       0.19321663543124187
4.11E9                   0.9025086782416335       0.11347535562071923
4.14E9                   0.9083383061175117       0.032991307800452806
4.17E9                   0.9070606746755964       -0.04761270428156909
4.2E9                    0.8987007583899438       -0.12771438463003504
4.23E9                   0.8833374062163504       -0.20669661973664955
4.26E9                   0.8611026378481903       -0.28395208905651653
4.29E9                   0.8321805524168102       -0.35888777352432655
4.32E9                   0.7968058750623719       -0.4309293369871096
4.35E9                   0.7552621614106386       -0.49952536431885247
4.38E9                   0.7078796723265687       -0.5641514431394218
4.41E9                   0.6550329248640001       -0.6243140737946289
4.44E9                   0.5971379221256307       -0.6795543868869537
4.47E9                   0.5346490659088549       -0.7294516410532162
4.5E9                    0.46805576058022247      -0.7736264685727076
4.53E9                   0.3978787236059873       -0.8117438335602535
4.56E9                   0.3246660261070819       -0.8435156676469862
4.59E9                   0.24898889448837203      -0.8687031511959035
4.62E9                   0.17143731059400835      -0.8871186139248215
4.65E9                   0.09261545166234059      -0.8986270367923489
4.68E9                   0.013137011568433367     -0.9031471457507506
4.71E9                   -0.06637955894251828     -0.9006520953345337
4.74E9                   -0.14531586176369693     -0.8911697435946501
4.77E9                   -0.2230583857405601      -0.8747825182512801
4.8E9                    -0.2990033434794633      -0.851626867886332
4.83E9                   -0.3725614846348723      -0.8218922847974316
4.86E9                   -0.4431628500010721      -0.7858198820834988
4.89E9                   -0.510261417711626       -0.7437005101173185
4.92E9                   -0.5733395810642969      -0.695872407698431
4.95E9                   -0.6319123907571079      -0.6427183992441944
4.98E9                   -0.6855314950226825      -0.5846626680524879
5.01E9                   -0.7337887195541241      -0.5221671534163329
5.04E9                   -0.7763192445102691      -0.4557276324930761
5.07E9                   -0.8128043554724604      -0.3858695538020198
5.1E9                    -0.8429737656358803      -0.3131436857341041
5.13E9                   -0.8666075223713214      -0.23812163072340586
5.16E9                   -0.8835375173840797      -0.16139123683309284
5.19E9                   -0.8936486129219431      -0.08355192034223471
5.22E9                   -0.8968793789342743      -0.005209904263640434
5.25E9                   -0.8932224161604506      0.07302661550518534
5.28E9                   -0.8827242293154751      0.15055234347266722
5.31E9                   -0.8654846213360842      0.2267697380502833
5.34E9                   -0.8416556036298687      0.301093768380335
5.37E9                   -0.8114398486027737      0.3729564978816382
5.4E9                    -0.7750887358511619      0.441811436530905
5.43E9                   -0.7329000526052992      0.5071376321226083
5.46E9                   -0.6852154010599225      0.5684434965712832
5.49E9                   -0.6324173462586401      0.6252703778543273
5.52E9                   -0.5749263171743576      0.6771958888425162
5.55E9                   -0.5131972579402418      0.723836993658878
5.58E9                   -0.44771601968339897     0.7648528355239972
5.61E9                   -0.3789954868717595      0.7999472723057718
5.64E9                   -0.3075714446496311      0.8288710713219558
5.67E9                   -0.23399821381198393     0.8514237069439345
5.7E9                    -0.15884410479070488     0.8674547071235607
5.73E9                   -0.08268676557883854     0.8768645111056179
5.76E9                   -0.006108512274882117    0.8796048295649131
5.79E9                   0.07030827333287669      0.8756785327693853
5.82E9                   0.14598561799756524      0.8651391190724284
5.85E9                   0.22035427566518387      0.8480898235787034
5.88E9                   0.2928578917374111       0.8246824131374002
5.91E9                   0.3629570258182142       0.7951156882525259
5.94E9                   0.430133038665916        0.7596336892385785
5.97E9                   0.493891830913714        0.718523593010851
6.0E9                    0.5537674025152219       0.6721132897324256
