% Model:              three_layers reality at 0.1mm.mph
% Version:            COMSOL 5.6.0.280
% Date:               Mar 7 2022, 10:33
% Table:              表格 1 - 全局计算 1
% freq (Hz)              real(emw.S11) (1)        imag(emw.S11) (1)
300000000                0.45815905806598534      -0.7420433732743448
330000000                0.3831678638742313       -0.7800139032016434
360000000                0.3052694538961673       -0.8106756386695472
390000000                0.2251344374526575       -0.833794429488203
420000000                0.14346149086429777      -0.849201227903484
450000000                0.06096822745757056      -0.8567946651713481
480000000                -0.021617261099152785    -0.8565425980491379
510000000                -0.10356440723925237     -0.8484827570145184
540000000                -0.18414781667968896     -0.8327225771212486
570000000                -0.2626546047068697      -0.8094382677893868
600000000                -0.33839142313947645     -0.7788731658880865
630000000                -0.4106911593678775      -0.7413354122257703
660000000                -0.47891927769286013     -0.6971949907005679
690000000                -0.5424797656141895      -0.646880171382894
720000000                -0.600820645967747       -0.5908734011783386
750000000                -0.6534390153290401      -0.5297066892864105
780000000                -0.6998855709464276      -0.4639565379837056
810000000                -0.7397685916781711      -0.3942384725575345
840000000                -0.7727573424167611      -0.321201227133779
870000000                -0.7985848762303219      -0.24552064594466563
900000000                -0.8170502139570888      -0.16789336129239488
930000000                -0.8280198865383053      -0.08903031131968306
960000000                -0.8314288314872628      -0.009650161389070263
990000000                -0.8272806410102824      0.06952730686917838
1020000000               -0.815647165440836       0.14778777506917046
1050000000               -0.7966674817879424      0.22442887344408458
1080000000               -0.7705462432793541      0.298766510862116
1110000000               -0.7375514314697342      0.37014099080802043
1140000000               -0.6980115380962428      0.4379228571637224
1170000000               -0.65231220900794        0.5015184170562709
1200000000               -0.6008923872944945      0.5603748919018238
1230000000               -0.5442399970797455      0.6139851519760434
1260000000               -0.4828872132478771      0.6618919945357719
1290000000               -0.4174053658703584      0.7036919303340458
1320000000               -0.3483995306225949      0.7390384488182306
1350000000               -0.27650285894092524     0.7676447374968149
1380000000               -0.20237070329715784     0.7892858365866897
1410000000               -0.1266745938047544      0.8038002157821058
1440000000               -0.050096123229686644    0.8110907654359112
1470000000               0.026679202819430793     0.8111252001869936
1500000000               0.10296809432337871      0.8039358785081577
1530000000               0.17809552867642786      0.7896190469842996
1560000000               0.2514006725690674       0.7683335233119846
1590000000               0.3222426223147604       0.7402988369194797
1620000000               0.39000591397747614      0.7057928507064233
1650000000               0.4541057571193495       0.6651488918281192
1680000000               0.5139929497333057       0.6187524233462105
1710000000               0.569158435248234        0.5670372923206565
1740000000               0.6191374667560989       0.5104815930765597
1770000000               0.663513347657813        0.44960318739888133
1800000000               0.7019207227881197       0.384954925681534
1830000000               0.734048398805549        0.3171196152447945
1860000000               0.7596416781028982       0.24670478330161816
1890000000               0.778504196075664        0.17433728298856288
1920000000               0.7904992577880187       0.10065779086290186
1950000000               0.7955506767768807       0.026315242997224028
1980000000               0.7936431258770771       -0.048038745980694436
2010000000               0.7848220173922638       -0.12175544208752148
2040000000               0.7691929368757301       -0.19419449980820902
2070000000               0.7469206594326274       -0.26472940377538196
2100000000               0.7182277759304733       -0.3327528515048593
2130000000               0.6833929418655971       -0.39768211357809896
2.16E9                   0.6427487220422915       -0.45896444042760554
2.19E9                   0.5966789253200763       -0.5160826041503636
2.22E9                   0.5456151960651509       -0.5685606337333187
2.25E9                   0.49003247419513624      -0.6159696581069171
2.28E9                   0.43044284890214435      -0.6579334454511377
2.31E9                   0.36738751487336185      -0.6941327315371899
2.34E9                   0.30142722722960597      -0.7243070137149359
2.37E9                   0.23313280367124334      -0.7482527020146825
2.4E9                    0.1630781425601917       -0.7658178549900385
2.43E9                   0.09183774716300981      -0.7768957802983487
2.46E9                   0.019988477761062207     -0.781420933514117
2.49E9                   -0.05188732805953542     -0.7793693716348753
2.52E9                   -0.1232008959840778      -0.7707631882289008
2.55E9                   -0.1933600336470784      -0.7556762210425763
2.58E9                   -0.26177557118903433     -0.734238310055773
2.61E9                   -0.327869412976293       -0.7066368188873939
2.64E9                   -0.3910825258104098      -0.6731155557290562
2.67E9                   -0.4508819540263789      -0.6339718924122222
2.7E9                    -0.506766634507469       -0.5895528872340517
2.73E9                   -0.558272142949912       -0.5402509539796764
2.76E9                   -0.6049745995328135      -0.4864993552420225
2.79E9                   -0.6464939309501233      -0.42876762571400673
2.82E9                   -0.6824966193515886      -0.3675569460542184
2.85E9                   -0.7126980095526424      -0.303395458432638
2.88E9                   -0.7368642054218344      -0.23683351279723094
2.91E9                   -0.7548135626229714      -0.16843884168644163
2.94E9                   -0.7664177732361356      -0.0987916723987843
2.97E9                   -0.7716025336507022      -0.02847979525103135
3.0E9                    -0.7703477874016125      0.04190638550828707
3.03E9                   -0.7626875375031342      0.11177878604730603
3.06E9                   -0.7487092270313356      0.18055652672227596
3.09E9                   -0.7285526916907155      0.24767072767787326
3.12E9                   -0.702408693265589       0.3125691784310448
3.15E9                   -0.6705170477702934      0.3747208448824873
3.18E9                   -0.6331643662633957      0.4336201800052275
3.21E9                   -0.5906814291324072      0.4887912079878902
3.24E9                   -0.5434402157905143      0.5397913556865735
3.27E9                   -0.4918506110069267      0.5862150086410396
3.3E9                    -0.43635680691286993     0.6276967707276908
3.33E9                   -0.3774334169052761      0.6639144059574567
3.36E9                   -0.3155813155257504      0.6945914375065456
3.39E9                   -0.25132321851563805     0.7194993729878679
3.42E9                   -0.18519902117681913     0.7384595171586262
3.45E9                   -0.11776092220053905     0.7513443254747899
3.48E9                   -0.04956837465656623     0.7580782466938658
3.51E9                   0.018817074546223545     0.758638003081479
3.54E9                   0.08683697349798258      0.7530522657709047
3.57E9                   0.1539410789349942       0.7414007022041924
3.6E9                    0.21959227817223131      0.7238124016170773
3.63E9                   0.283271201818684        0.7004637193300214
3.66E9                   0.34448042263228623      0.6715756146134129
3.69E9                   0.40274816023014126      0.6374105837083638
3.72E9                   0.45763144173006864      0.598269305950358
3.75E9                   0.5087186993638266       0.5544871283955687
3.78E9                   0.5556318170981875       0.5064305166078099
3.81E9                   0.598027672728073        0.4544935976854289
3.84E9                   0.6355992640302098       0.39909491028642446
3.87E9                   0.6680765537738975       0.34067444478647313
3.9E9                    0.695227204464916        0.2796909968703159
3.93E9                   0.7168573787574584       0.21661977472772073
3.96E9                   0.7328127398080263       0.1519501148744858
3.99E9                   0.7429796993887777       0.08618310436061549
4.02E9                   0.747286852280833        0.01982890243249027
4.05E9                   0.7457064375184981       -0.04659639193741478
4.08E9                   0.7382556107963438       -0.11257438504906424
4.11E9                   0.7249973120469285       -0.1775884976870207
4.14E9                   0.7060405620576827       -0.24112840280096362
4.17E9                   0.6815401017851003       -0.30269460795195346
4.2E9                    0.6516953726031787       -0.36180299564617563
4.23E9                   0.6167489034965051       -0.41798916855508045
4.26E9                   0.5769842090380772       -0.47081250159094357
4.29E9                   0.5327233071262694       -0.5198598603354535
4.32E9                   0.4843239442487665       -0.5647489896468133
4.35E9                   0.4321765813096315       -0.6051315981242903
4.38E9                   0.37670115915747626      -0.640696162738236
4.41E9                   0.31834364100526147      -0.6711704600785087
4.44E9                   0.2575723236068642       -0.6963238068047741
4.47E9                   0.1948739186843218       -0.7159689715723602
4.5E9                    0.13074942494674371      -0.7299637100428118
4.53E9                   0.06570983276155733      -0.7382118751984778
4.56E9                   2.7172284709671147E-4    -0.7406640660714987
4.59E9                   -0.06504716635048258     -0.7373177967780369
4.62E9                   -0.12973232342627875     -0.7282171915784551
4.65E9                   -0.19327672819916197     -0.7134522366123961
4.68E9                   -0.25518494080543147     -0.6931576394143746
4.71E9                   -0.31497698835329635     -0.6675113565060646
4.74E9                   -0.3721920508283037      -0.6367328422771047
4.77E9                   -0.4263919679919237      -0.6010810491712066
4.8E9                    -0.47716459097519953     -0.5608521775285407
4.83E9                   -0.5241269830522745      -0.5163771463611176
4.86E9                   -0.5669284403791574      -0.4680187462802458
4.89E9                   -0.6052532680245837      -0.41616844870713127
4.92E9                   -0.6388232231383126      -0.3612428780175737
4.95E9                   -0.667399534016488       -0.303679995550467
4.98E9                   -0.690784422728369       -0.24393508447003576
5.01E9                   -0.7088220958272888      -0.18247665237247102
5.04E9                   -0.72139921529212        -0.11978237728067198
5.07E9                   -0.7284449109446799      -0.056335208322786635
5.1E9                    -0.7299304348169118      0.007380305333403736
5.13E9                   -0.725868574725638       0.07088143944016129
5.16E9                   -0.7163129284904493      0.13369051558872208
5.19E9                   -0.7013570909044579      0.19533800352310038
5.22E9                   -0.6811337368096502      0.2553655962758222
5.25E9                   -0.6558135235452405      0.31332931004601755
5.28E9                   -0.6256037145097391      0.3688025894634412
5.31E9                   -0.590746456693961       0.42137932894818253
5.34E9                   -0.5515167156983408      0.4706766879559068
5.37E9                   -0.5082199471651137      0.5163375991840555
5.4E9                    -0.4611896273500302      0.5580329328773045
5.43E9                   -0.41078475960262495     0.5954633558561889
5.46E9                   -0.3573874248047414      0.6283609779547897
5.49E9                   -0.3014003761286844      0.6564908930103345
5.52E9                   -0.24324461770202552     0.6796526969951645
5.55E9                   -0.18335687026023564     0.6976820154910951
5.58E9                   -0.12218682052820357     0.7104520132651397
5.61E9                   -0.060194073029093964    0.7178748040837766
5.64E9                   0.0021552321019417064    0.7199026393324099
5.67E9                   0.06439211071188033      0.7165287378702898
5.7E9                    0.12604864441608168      0.7077876348420769
5.73E9                   0.1866619623716851       0.6937549778563903
5.76E9                   0.24577812756117565      0.6745467772407293
5.79E9                   0.30295578848438076      0.6503181981970345
5.82E9                   0.35776953007142503      0.6212620320705645
5.85E9                   0.4098129443368892       0.5876069775490552
5.88E9                   0.4587015010309136       0.5496158052066143
5.91E9                   0.5040753063880432       0.5075834025090036
5.94E9                   0.5456017987784627       0.4618346391598329
5.97E9                   0.5829783707919889       0.4127219750352083
6.0E9                    0.6159348559976252       0.3606227519255627
