% Model:              three_layers reality at 0.1mm.mph
% Version:            COMSOL 5.6.0.280
% Date:               Mar 10 2022, 15:49
% Table:              表格 1 - 全局计算 1
% freq (Hz)              real(emw.S11) (1)        imag(emw.S11) (1)
300000000                0.4676922135516424       -0.768920119350474
330000000                0.3890825772665723       -0.8080048350012735
360000000                0.3074981591399937       -0.8393120919999939
390000000                0.22365684300197997      -0.862615420777781
420000000                0.13830431784033445      -0.8777545173318683
450000000                0.052204905891296255     -0.8846392529565321
480000000                -0.03386724494619475     -0.8832521223829968
510000000                -0.1191366645670005      -0.8736494212484675
540000000                -0.20283477899936184     -0.8559613352976403
570000000                -0.28420783474453776     -0.8303910637516921
600000000                -0.36252450111498363     -0.7972130666909389
630000000                -0.4370831130610758      -0.7567705086666425
660000000                -0.5072185097038874      -0.7094719623859165
690000000                -0.57230842175522        -0.6557874329018025
720000000                -0.6317793609119825      -0.5962437623324155
750000000                -0.6851119660711776      -0.5314194766126108
780000000                -0.731845764996233       -0.46193913744348336
810000000                -0.7715833140931947      -0.3884672654672059
840000000                -0.8039936845940568      -0.31170190261927466
870000000                -0.8288152693385591      -0.23236788379379508
900000000                -0.8458578908317942      -0.15120988943861083
930000000                -0.8550041981111814      -0.06898535137360995
960000000                -0.8562103467574258      0.013542714928141334
990000000                -0.8495059637217347      0.0956128797002347
1020000000               -0.8349934054078911      0.17647239815070004
1050000000               -0.8128463245290295      0.2553841702025787
1080000000               -0.7833075678072966      0.3316334938147642
1110000000               -0.7466864330228802      0.40453454762828706
1140000000               -0.7033553197964116      0.47343654296857074
1170000000               -0.6537458141126644      0.5377294890397648
1200000000               -0.5983442514635977      0.5968495203038685
1230000000               -0.5376868080306582      0.6502837399941729
1260000000               -0.4723541731176291      0.6975745394099837
1290000000               -0.40296585924637474     0.7383233585023508
1320000000               -0.33017420893633587     0.7721938593476275
1350000000               -0.2546581590073059      0.7989144903775852
1380000000               -0.17711682460463207     0.8182804255177705
1410000000               -0.09826296555276351     0.8301548687915293
1440000000               -0.018816397809910335    0.8344697211190324
1470000000               0.060502588025230786     0.8312256122832999
1500000000               0.138979740522322        0.8204913069527324
1530000000               0.21591323446216643      0.8024024993683826
1560000000               0.29061987469276573      0.7771600168039395
1590000000               0.3624410630925695       0.7450274569392341
1620000000               0.4307484779165986       0.706328289198711
1650000000               0.49494941911655665      0.6614424542857336
1680000000               0.5544917765295976       0.6108025003074512
1710000000               0.6088685827100808       0.5548892972997506
1740000000               0.6576221166663239       0.4942273750595154
1770000000               0.7003475296645079       0.42937993190226015
1800000000               0.7366959696398503       0.3609435639842068
1830000000               0.7663771861576358       0.289542766574683
1860000000               0.7891616038561247       0.21582425952993278
1890000000               0.8048818584112714       0.140451189735661
1920000000               0.8134337958982005       0.06409726244929008
1950000000               0.8147769434961142       -0.012559148239344424
1980000000               0.8089344672052896       -0.08884086343506142
2010000000               0.7959926400618234       -0.1640776983196971
2040000000               0.7760998514580955       -0.2376121667473207
2070000000               0.749465192617149        -0.30880507959661807
2100000000               0.716356650675495        -0.37704104915150954
2130000000               0.6770989262971217       -0.44173394453967135
2.16E9                   0.6320708446833223       -0.5023323780892704
2.19E9                   0.5817022411819919       -0.5583253225018242
2.22E9                   0.5264700615450616       -0.6092479216762063
2.25E9                   0.46689324841102897      -0.6546873944551266
2.28E9                   0.4035258975695092       -0.6942885662852425
2.31E9                   0.3369483839777697       -0.7277580187617128
2.34E9                   0.267756930994463        -0.7548654031237775
2.37E9                   0.19655336870063886      -0.7754407325477849
2.4E9                    0.123937812759484        -0.7893679746687173
2.43E9                   0.050506410018880565     -0.7965775302665583
2.46E9                   -0.023146250541996594    -0.7970414042053783
2.49E9                   -0.09642329676424453     -0.7907735010414554
2.52E9                   -0.16872420639301336     -0.7778343204273597
2.55E9                   -0.23944786419948771     -0.7583370015411992
2.58E9                   -0.30799935930469496     -0.7324517126509836
2.61E9                   -0.37379848407812455     -0.7004070062738808
2.64E9                   -0.43628808429195476     -0.6624883357037465
2.67E9                   -0.4949412759263678      -0.6190346437051293
2.7E9                    -0.549267302336291       -0.5704339237681992
2.73E9                   -0.5988161958959107      -0.5171183527295707
2.76E9                   -0.6431825093466474      -0.45955929702711873
2.79E9                   -0.6820083425547427      -0.3982623039918771
2.82E9                   -0.7149858145382529      -0.33376209640966437
2.85E9                   -0.7418590640702742      -0.2666175568184194
2.88E9                   -0.7624258168514241      -0.19740668654974258
2.91E9                   -0.7765385310280929      -0.12672153438837364
2.94E9                   -0.7841051198961302      -0.05516310190189862
2.97E9                   -0.7850892459914343      0.016663756690224997
3.0E9                    -0.7795101810068475      0.08815541392013629
3.03E9                   -0.7674422289427203      0.15871449568755716
3.06E9                   -0.7490137142992399      0.2277548193273379
3.09E9                   -0.7244055422791894      0.29470620569555894
3.12E9                   -0.6938493432727585      0.3590191278154269
3.15E9                   -0.6576252188438002      0.4201691604828708
3.18E9                   -0.6160591105142608      0.47766119817679736
3.21E9                   -0.5695198152214166      0.5310334128629985
3.24E9                   -0.5184156720535416      0.5798609275299293
3.27E9                   -0.4631909436833949      0.623759184899955
3.3E9                    -0.4043219131225721      0.6623869925730475
3.33E9                   -0.34231271321399037     0.6954492249516351
3.36E9                   -0.2776909038612841      0.7226991583749758
3.39E9                   -0.21100281225052067     0.7439404091956688
3.42E9                   -0.14280865574719234     0.7590284361528732
3.45E9                   -0.07367747708731845     0.767871560359323
3.48E9                   -0.004181937259486368    0.7704314511742725
3.51E9                   0.06510696766984357      0.7667230275133112
3.54E9                   0.1336251766096142       0.756813734790388
3.57E9                   0.20082071060136253      0.7408221793743697
3.6E9                    0.2661585751425518       0.7189161341022694
3.63E9                   0.3291252966083626       0.6913099655120668
3.66E9                   0.3892329875706715       0.6582615689451556
3.69E9                   0.4460228635186109       0.6200689247077765
3.72E9                   0.49906816689455535      0.5770664039634055
3.75E9                   0.5479764880252568       0.5296209587753421
3.78E9                   0.5923915055127212       0.47812833101472424
3.81E9                   0.6319942051887957       0.4230094107601316
3.84E9                   0.6665036806098986       0.36470686024880433
3.87E9                   0.6956776653968085       0.30368208290375126
3.9E9                    0.7193129826107395       0.24041255123715768
3.93E9                   0.7372460970665604       0.1753894183515061
3.96E9                   0.7493539072779285       0.10911524919378245
3.99E9                   0.7555548182397722       0.04210165124298382
4.02E9                   0.7558100192773065       -0.02513341490697576
4.05E9                   0.7501247893464318       -0.09206880249071324
4.08E9                   0.7385495971108385       -0.15818387592186378
4.11E9                   0.7211807683024678       -0.22296267761487587
4.14E9                   0.698160550557185        -0.28589841277079947
4.17E9                   0.6696764934169175       -0.3464980536810496
4.2E9                    0.6359601513551983       -0.4042868662768295
4.23E9                   0.5972851879542301       -0.45881270130563667
4.26E9                   0.5539649966345322       -0.5096499530282432
4.29E9                   0.5063499555781423       -0.5564031498829554
4.32E9                   0.4548244094774681       -0.5987101875665809
4.35E9                   0.3998034325173347       -0.6362452363567703
4.38E9                   0.3417293909035293       -0.6687213512560755
4.41E9                   0.2810683006968741       -0.6958927934322692
4.44E9                   0.21830597217490447      -0.7175570457152048
4.47E9                   0.15394394299681055      -0.7335564838754216
4.5E9                    0.08849522285905245      -0.7437796549627214
4.53E9                   0.022479895056887324     -0.7481621157051666
4.56E9                   -0.043579359928919814    -0.7466867963448396
4.59E9                   -0.10916174078331498     -0.7393838756771814
4.62E9                   -0.17375272029253727     -0.7263301782618923
4.65E9                   -0.23684828565736407     -0.7076481305190617
4.68E9                   -0.2979589713821155      -0.683504332775873
4.71E9                   -0.35661366097352104     -0.6541078123968109
4.74E9                   -0.41236316391477557     -0.6197080139395729
4.77E9                   -0.4647835942303024      -0.5805925566514736
4.8E9                    -0.5134795773123291      -0.5370847560820834
4.83E9                   -0.5580872900994647      -0.48954087895966913
4.86E9                   -0.5982773037188778      -0.43834709152799695
4.89E9                   -0.6337571611367028      -0.38391607675398015
4.92E9                   -0.6642735993911537      -0.3266833309764386
4.95E9                   -0.689614324859412       -0.2671031948390264
4.98E9                   -0.7096092717967984      -0.20564471418742336
5.01E9                   -0.7241313143211626      -0.14278745364094017
5.04E9                   -0.7330964520720793      -0.07901739213201592
5.07E9                   -0.7364635401910595      -0.014823011974570864
5.1E9                    -0.7342336730654113      0.049308348481499245
5.13E9                   -0.7264493457184804      0.11289386767630304
5.16E9                   -0.7131934969384637      0.17545838992292717
5.19E9                   -0.6945884843344349      0.23653744430960205
5.22E9                   -0.6707949693048763      0.29568022967611984
5.25E9                   -0.6420106290177062      0.3524526176389022
5.28E9                   -0.6084685935023652      0.4064401501255632
5.31E9                   -0.5704355417369918      0.45725093648409154
5.34E9                   -0.5282094657720521      0.5045183243095914
5.37E9                   -0.4821171893827658      0.5479032439396512
5.4E9                    -0.43251177005713376     0.58709619542391
5.43E9                   -0.3797699031508315      0.6218189249148905
5.46E9                   -0.3242893935535214      0.6518258912214141
5.49E9                   -0.26648668905965983     0.6769056348204399
5.52E9                   -0.20679440758886738     0.6968821329943885
5.55E9                   -0.14565875493499067     0.7116161704627153
5.58E9                   -0.0835367261108587      0.7210066927102063
5.61E9                   -0.02089300880827807     0.7249920535342076
5.64E9                   0.04180344394540132      0.7235510294076559
5.67E9                   0.10408314077427382      0.7167034594710507
5.7E9                    0.1654799791762784       0.7045103890387143
5.73E9                   0.2255352189981643       0.6870736496584565
5.76E9                   0.2838013300209575       0.6645348908676463
5.79E9                   0.33984557485496547      0.637074161380133
5.82E9                   0.39325326627921736      0.604908184991651
5.85E9                   0.44363072769380774      0.5682884655753305
5.88E9                   0.49060804444678024      0.5274992931105591
5.91E9                   0.5338416982202968       0.48285564318971963
5.94E9                   0.5730171332155124       0.4347009049608863
5.97E9                   0.6078512405831078       0.38340435699040265
6.0E9                    0.6380946953701546       0.32935833253313174
