% Model:              three_layers reality at 0.1mm.mph
% Version:            COMSOL 5.6.0.280
% Date:               Mar 10 2022, 22:07
% Table:              表格 1 - 全局计算 1
% freq (Hz)              real(emw.S11) (1)        imag(emw.S11) (1)
300000000                0.416346961246801        -0.7974738794586576
330000000                0.3295648041438359       -0.8341914897365946
360000000                0.23981087193218686      -0.8616987661879887
390000000                0.14802051138430947      -0.8797595050846909
420000000                0.05515502301583482      -0.8882325772551088
450000000                -0.03781017687064914     -0.8870752178313421
480000000                -0.12989720330485657     -0.8763446598917661
510000000                -0.22013712535000424     -0.8561982790081246
540000000                -0.3075811014946852      -0.8268923666485707
570000000                -0.3913111476164206      -0.7887796253188952
600000000                -0.47045044791882423     -0.7423054673176146
630000000                -0.5441731151992452      -0.688003196181054
660000000                -0.611713306816152       -0.6264881521822521
690000000                -0.6723736057446591      -0.5584509080300325
720000000                -0.7255325816464393      -0.4846496072236053
750000000                -0.7706514544306029      -0.4059015441613383
780000000                -0.8072797919757426      -0.3230740913929065
810000000                -0.8350601840270789      -0.23707508553607962
840000000                -0.8537318458754755      -0.14884278803591086
870000000                -0.8631331177269654      -0.05933554093016491
900000000                -0.8632028386638254      0.030478760061947746
930000000                -0.8539805872052203      0.11963325167074797
960000000                -0.8356057939182029      0.20717262508934292
990000000                -0.8083157447559531      0.2921634634293852
1020000000               -0.772442506760732       0.37370427640517156
1050000000               -0.7284088201629544      0.45093511994554414
1080000000               -0.6767230127235901      0.5230466940388667
1110000000               -0.6179730029109067      0.5892888199329502
1140000000               -0.552819468692081       0.6489782060465243
1170000000               -0.4819882670448446      0.7015054220351569
1200000000               -0.40626219734284286     0.7463410103055342
1230000000               -0.32647220765011475     0.7830406757730716
1260000000               -0.24348814804875554     0.8112495059888213
1290000000               -0.15820917860910502     0.8307051857246803
1320000000               -0.07155394185994678     0.8412401821063562
1350000000               0.01554938975712137      0.8427828884629142
1380000000               0.10217308123734732      0.8353577268599057
1410000000               0.18739970889809143      0.8190842208943643
1440000000               0.2703318354166596       0.7941750614252233
1470000000               0.35010138472006463      0.7609331984747046
1500000000               0.4258786204443887       0.7197480024775899
1530000000               0.49688063774162716      0.671090547218253
1560000000               0.562379284974951        0.6155080751449152
1590000000               0.621708439254088        0.5536177133458364
1620000000               0.6742705680276289       0.4860995149669286
1650000000               0.7195425173730943       0.41368890662206503
1680000000               0.7570804766773289       0.3371686271228198
1710000000               0.7865240788408283       0.2573602464126113
1740000000               0.8075996044649479       0.17511535673084552
1770000000               0.8201222684508033       0.09130652954778662
1800000000               0.8239975771575004       0.006818132812354991
1830000000               0.8192217542166035       -0.07746289722027863
1860000000               0.8058812430613771       -0.16065623660257003
1890000000               0.7841513040680251       -0.24189721646855464
1920000000               0.7542937339744786       -0.3203456413976462
1950000000               0.7166537445983168       -0.3951943028845792
1980000000               0.671656046554682        -0.4656771149820113
2010000000               0.6198001907734331       -0.5310768100601212
2040000000               0.5616552248234401       -0.5907321464544987
2070000000               0.4978537196906608       -0.6440445972972577
2100000000               0.4290852113775998       -0.6904845100643199
2130000000               0.356089074505314        -0.7295967447479405
2.16E9                   0.2796467948489873       -0.761005804558578
2.19E9                   0.20057353190024774      -0.784420443960746
2.22E9                   0.11970877683113486      -0.7996376377675996
2.25E9                   0.03790587282014784      -0.8065455819567449
2.28E9                   -0.043979703037756404    -0.8051250732835868
2.31E9                   -0.12510293263532565     -0.7954483177932561
2.34E9                   -0.20464152299912133     -0.7776743024406354
2.37E9                   -0.2818058104098932      -0.7520407686302266
2.4E9                    -0.35584432867494525     -0.7188545283967779
2.43E9                   -0.4260447524981178      -0.6784832943421447
2.46E9                   -0.49173255499442803     -0.6313517513903575
2.49E9                   -0.5522711541724644      -0.5779420013035528
2.52E9                   -0.6070661201593205      -0.5187957197201046
2.55E9                   -0.6555732451484633      -0.4545146447867569
2.58E9                   -0.6973082802205568      -0.38575749270800974
2.61E9                   -0.7318559906527721      -0.31323338816090646
2.64E9                   -0.7588771902824145      -0.2376930097900689
2.67E9                   -0.77811347651723        -0.15991873097835155
2.7E9                    -0.7893899702067794      -0.08071461605134969
2.73E9                   -0.7926165055483253      -8.966879850639182E-4
2.76E9                   -0.7877876362816085      0.07871639882357179
2.79E9                   -0.7749816952207333      0.15731227274633547
2.82E9                   -0.7543590400888104      0.23409336898852928
2.85E9                   -0.7261595551402987      0.3082850758437821
2.88E9                   -0.6906994472006147      0.3791434938014372
2.91E9                   -0.6483673645087467      0.4459627785700604
2.94E9                   -0.5996198677202921      0.5080820254937759
2.97E9                   -0.5449762886226741      0.5648916454031487
3.0E9                    -0.48501302035397975     0.615839179365814
3.03E9                   -0.420357291361697       0.6604345011051381
3.06E9                   -0.35168048321625883     0.6982543599028237
3.09E9                   -0.2796910590212999      0.7289462230883953
3.12E9                   -0.20512717437835415     0.7522313849400457
3.15E9                   -0.1287490461322985      0.7679073176803416
3.18E9                   -0.05133115533928461     0.7758492493827558
3.21E9                   0.026345640085563105     0.776010962343774
3.24E9                   0.10350201025357908      0.7684248128048378
3.27E9                   0.1793680068123159       0.7532009782043789
3.3E9                    0.2531907997899136       0.7305259409270687
3.33E9                   0.3242422345941096       0.7006602180548207
3.36E9                   0.39182614533937327      0.6639353459008932
3.39E9                   0.4552853562483808       0.6207501277120941
3.42E9                   0.5140082947527155       0.5715661550352309
3.45E9                   0.5674351289702025       0.5169026201718514
3.48E9                   0.6150633306807691       0.45733045093623376
3.51E9                   0.6564525562422219       0.39346582081207115
3.54E9                   0.6912287365613313       0.3259631168082697
3.57E9                   0.7190872775761883       0.2555074807258435
3.6E9                    0.7397952973446238       0.18280707109967387
3.63E9                   0.7531928635322175       0.1085852158423367
3.66E9                   0.7591932407815876       0.03357263326891068
3.69E9                   0.757782202999195        -0.04150010951933703
3.72E9                   0.7490165044093055       -0.11590975414183702
3.75E9                   0.733021633013842        -0.18894700730053546
3.78E9                   0.7099889931901693       -0.25992261312715886
3.81E9                   0.6801726829362039       -0.32817279941230854
3.84E9                   0.6438860417832601       -0.39306410873819897
3.87E9                   0.6014981356511346       -0.45399769189426337
3.9E9                    0.5534303005758799       -0.5104132094795454
3.93E9                   0.5001527839724922       -0.5617925343323295
3.96E9                   0.4421814143364824       -0.6076634465712873
3.99E9                   0.3800741302317704       -0.6476034518998306
4.02E9                   0.3144271429278398       -0.6812437438437701
4.05E9                   0.24587051675116706      -0.708273204228341
4.08E9                   0.17506302450355504      -0.7284422334731369
4.11E9                   0.10268624783904468      -0.7415661524467424
4.14E9                   0.029438008624446968     -0.7475279299048478
4.17E9                   -0.04397469340088538     -0.746280052186183
4.2E9                    -0.11684301750831204     -0.7378454410575558
4.23E9                   -0.1884636769804697      -0.7223174145042344
4.26E9                   -0.2581462151466597      -0.6998587525808522
4.29E9                   -0.3252200421749481      -0.6706999645430155
4.32E9                   -0.38904116709767794     -0.6351368542978076
4.35E9                   -0.448998596907098       -0.5935274583553468
4.38E9                   -0.5045203875509583      -0.5462883990071331
4.41E9                   -0.5550793230766438      -0.4938906700272441
4.44E9                   -0.6001981784391837      -0.4368548618211344
4.47E9                   -0.6394544993828897      -0.3757458396913796
4.5E9                    -0.672484818386265       -0.31116690863725727
4.53E9                   -0.698988222937426       -0.24375352449228496
4.56E9                   -0.7187292022438678      -0.17416663791402495
4.59E9                   -0.7315397194303804      -0.10308577946868176
4.62E9                   -0.7373204855787311      -0.031202006752803636
4.65E9                   -0.7360414454983502      0.04078916565578405
4.68E9                   -0.7277415163295723      0.112194747607886
4.71E9                   -0.7125276406794564      0.182331088661021
4.74E9                   -0.6905732185072518      0.2505304839332864
4.77E9                   -0.662115964549543       0.31614755542602463
4.8E9                    -0.6274552073254981      0.3785654036346995
4.83E9                   -0.5869486158415426      0.4372015102458357
4.86E9                   -0.5410083263249973      0.4915133395167874
4.89E9                   -0.4900964526518623      0.5410035472821948
4.92E9                   -0.43471999941417083     0.585224678209251
4.95E9                   -0.37542524568825403     0.6237832257746172
4.98E9                   -0.3127917171063732      0.656342948952089
5.01E9                   -0.24742590105412648     0.6826273818635684
5.04E9                   -0.17995487553913014     0.7024215297029561
5.07E9                   -0.11102001057768121     0.7155728052861151
5.1E9                    -0.04127086082472236     0.7219913118961061
5.13E9                   0.028640694807007885     0.7216496044976074
5.16E9                   0.09806608079878885      0.7145820503517967
5.19E9                   0.1663654874660111       0.7008838596292057
5.22E9                   0.23291324762771862      0.6807097821618442
5.25E9                   0.2971031674435178       0.6542723996086284
5.28E9                   0.358353774889256        0.621839917382176
5.31E9                   0.4161133730234006       0.5837333944483813
5.34E9                   0.4698647495350521       0.5403234274561063
5.37E9                   0.519129418669964        0.4920263897786199
5.4E9                    0.5634713443119171       0.4393003746687818
5.43E9                   0.6025001779166861       0.3826409844408312
5.46E9                   0.6358741052797335       0.32257705223745126
5.49E9                   0.6633024108924979       0.25966630701890275
5.52E9                   0.684547839116884        0.19449092544143487
5.55E9                   0.6994287730003731       0.12765287637634148
5.58E9                   0.707821184163311        0.05976896156083298
5.61E9                   0.7096602475505058       -0.00853451343018082
5.64E9                   0.7049414752289682       -0.07662744725193948
5.67E9                   0.6937212135528541       -0.14388196657936225
5.7E9                    0.6761163757417133       -0.20967862756718414
5.73E9                   0.6523033488216069       -0.2734126009561882
5.76E9                   0.6225161071843477       -0.334499633641265
5.79E9                   0.5870436538473748       -0.39238162312139896
5.82E9                   0.5462269567934815       -0.44653172995291623
5.85E9                   0.5004555295188421       -0.4964590488510873
5.88E9                   0.4501637343652375       -0.5417129163946796
5.91E9                   0.3958268042805928       -0.5818869300628715
5.94E9                   0.33795652491942046      -0.6166227013030054
5.97E9                   0.277096512866966        -0.64561329819119
6.0E9                    0.21381705892276132      -0.6686062820325792
