% Model:              three_layers reality at 0.1mm.mph
% Version:            COMSOL 5.6.0.280
% Date:               Feb 25 2022, 15:55
% Table:              表格 1 - 全局计算 1
% freq (Hz)              real(emw.S11) (1)        imag(emw.S11) (1)
300000000                0.5984128311300649       -0.7369470577165018
330000000                0.531637419712701        -0.7856079445452481
360000000                0.4610293269919707       -0.8283083527666255
390000000                0.38710299464979453      -0.8647436818836911
420000000                0.31040237246324764      -0.894653044811737
450000000                0.2314935980068995       -0.9178235642068255
480000000                0.15096078518666314      -0.9340918878479791
510000000                0.06940129096858226      -0.943345665377326
540000000                -0.012579042078602677    -0.9455245887954601
570000000                -0.09437064672075923     -0.9406209973869594
600000000                -0.17536498049862087     -0.9286800536057062
630000000                -0.25495924253380114     -0.9097994948905597
660000000                -0.33256102700389567     -0.8841289674651442
690000000                -0.40759288641855473     -0.8518689497295893
720000000                -0.4794967719847046      -0.8132692750721513
750000000                -0.5477383198533018      -0.768627266311598
780000000                -0.6118109509948265      -0.7182854969409566
810000000                -0.6712397543733626      -0.662629196550789
840000000                -0.7255851230796018      -0.6020833210473236
870000000                -0.7744461148064369      -0.5371093110565358
900000000                -0.817463510922007       -0.4682015635238755
930000000                -0.8543225488997177      -0.39588364556001765
960000000                -0.8847553073124689      -0.3207042795500336
990000000                -0.9085427233008538      -0.24323313342333863
1020000000               -0.9255162274450331      -0.1640564483452891
1050000000               -0.9355589825447427      -0.08377254022459653
1080000000               -0.9386067169088087      -0.0029872111779102183
1110000000               -0.9346481460607814      0.07769089224298663
1140000000               -0.9237249800694025      0.15765493590303362
1170000000               -0.905931517402607       0.23630453327157297
1200000000               -0.881413829604793       0.3130503207253055
1230000000               -0.850368544609848       0.38731843707823693
1260000000               -0.8130412397597028      0.45855487133613515
1290000000               -0.7697244589744895      0.5262296443457544
1320000000               -0.7207553714402466      0.5898407917406006
1350000000               -0.6665130922900944      0.6489181170206965
1380000000               -0.6074156879272471      0.7030266866721195
1410000000               -0.5439168918837873      0.7517700402694163
1440000000               -0.47650255834444927     0.7947930924710815
1470000000               -0.4056868830298588      0.8317847056089115
1500000000               -0.33200842249665785     0.8624799148837563
1530000000               -0.2560259438964238      0.8866617912318171
1560000000               -0.17831413898035145     0.9041629296227663
1590000000               -0.0994592359781354      0.9148665541426398
1620000000               -0.020054543987157204    0.9187072339703652
1650000000               0.05930403577962924      0.9156712076548813
1680000000               0.13802249733187147      0.9057963160560606
1710000000               0.215513182254408        0.8891715473343291
1740000000               0.2911991633378257       0.8659362002969783
1770000000               0.3645185279057945       0.8362786750767548
1800000000               0.4349285291545371       0.8004349028751631
1830000000               0.5019095758708829       0.7586864289887177
1860000000               0.5649690324730594       0.7113581655612085
1890000000               0.6236448026216064       0.6588158328110698
1920000000               0.6775086717231145       0.6014631094413718
1950000000               0.7261693855969672       0.5397385147404363
1980000000               0.769275444559344        0.4741120466289574
2010000000               0.8065175946016417       0.40508160100796253
2040000000               0.8376309991068482       0.33316919969145975
2070000000               0.8623970773772233       0.2589170546448606
2100000000               0.8806449983695015       0.18288349735276507
2130000000               0.8922528203443563       0.1056388033011539
2.16E9                   0.8971482699191317       0.02776094115915126
2.19E9                   0.8953091561345599       -0.05016872242758585
2.22E9                   0.8867634178560518       -0.1275697321808794
2.25E9                   0.871588805231557        -0.2038668368060913
2.28E9                   0.8499121984185888       -0.2784942349437296
2.31E9                   0.8219085690992309       -0.35089974477722063
2.34E9                   0.7877995926733544       -0.420548868094939
2.37E9                   0.7478519209190537       -0.48692872112484786
2.4E9                    0.7023751266958933       -0.5495518050835613
2.43E9                   0.6517193333389859       -0.6079595906394343
2.46E9                   0.5962725423832357       -0.6617258905030159
2.49E9                   0.536457674075246        -0.7104599937898192
2.52E9                   0.4727293371547333       -0.7538095336163776
2.55E9                   0.4055703498971907       -0.7914630561965013
2.58E9                   0.3354880438337613       -0.8231522594422718
2.61E9                   0.2630103942190692       -0.8486538752925894
2.64E9                   0.18868202950890503      -0.8677911863606291
2.67E9                   0.11306016693220117      -0.8804351886320747
2.7E9                    0.03671050125451636      -0.8865054241505087
2.73E9                   -0.039796949411722876    -0.8859705002092128
2.76E9                   -0.11589204505263151     -0.8788482888144498
2.79E9                   -0.19100876276077178     -0.8652057806732487
2.82E9                   -0.26458944249985983     -0.8451585658365135
2.85E9                   -0.33608899180074997     -0.8188699264058589
2.88E9                   -0.40497899960892153     -0.7865495440094842
2.91E9                   -0.47075171520001025     -0.748451837083881
2.94E9                   -0.5329238558495715      -0.7048739488395961
2.97E9                   -0.5910402135859407      -0.6561534081469809
3.0E9                    -0.6446770350055291      -0.60266548569075
3.03E9                   -0.6934451502551462      -0.5448202680737911
3.06E9                   -0.7369928289615736      -0.4830594734303483
3.09E9                   -0.7750083423654732      -0.41785303357256487
3.12E9                   -0.8072222126846955      -0.34969546955695596
3.15E9                   -0.8334091331788168      -0.2791020888877798
3.18E9                   -0.8533895445670426      -0.20660503451301102
3.21E9                   -0.867030856421266       -0.13274921672658052
3.24E9                   -0.87424830493842        -0.058088160372226694
3.27E9                   -0.875005441631746       0.016820200055105018
3.3E9                    -0.869314250407531       0.09141774396624464
3.33E9                   -0.8572348936645782      0.16515037381513611
3.36E9                   -0.8388750910711669      0.2374721767614222
3.39E9                   -0.8143891376333369      0.3078495066838665
3.42E9                   -0.7839765706158116      0.37576495479621635
3.45E9                   -0.747880497622979       0.440721178674255
3.48E9                   -0.7063856009192538      0.5022445604282231
3.51E9                   -0.6598158354352223      0.5598886668456546
3.54E9                   -0.6085318403884122      0.6132374857475164
3.57E9                   -0.5529280865488575      0.6619084150716533
3.6E9                    -0.4934297831482101      0.705554983356901
3.63E9                   -0.4304895699120467      0.7438692829030144
3.66E9                   -0.36458402150138264     0.7765840990615908
3.69E9                   -0.2962099922692369      0.8034747222012717
3.72E9                   -0.22588083043391496     0.824360431227756
3.75E9                   -0.15412249101670705     0.839105640380372
3.78E9                   -0.08146957733244059     0.8476207035063679
3.81E9                   -0.008461340722162447    0.8498623725270188
3.84E9                   0.06436233159184557      0.8458339091227901
3.87E9                   0.13646491083842385      0.8355848510622448
3.9E9                    0.20731717383845005      0.8192104369440874
3.93E9                   0.27640107328558056      0.7968506956623908
3.96E9                   0.3432135025985316       0.7686892095969616
3.99E9                   0.4072699271551713       0.7349515633960889
4.02E9                   0.4681078551515947       0.6959034931535428
4.05E9                   0.525290123381892        0.6518487535542391
4.08E9                   0.5784079757726304       0.6031267227961352
4.11E9                   0.6270839153263467       0.5501097667244098
4.14E9                   0.6709743131474142       0.4932003841781678
4.17E9                   0.7097717604670148       0.4328281555917564
4.2E9                    0.7432071512194192       0.3694465166369129
4.23E9                   0.7710514837012732       0.30352937873743724
4.26E9                   0.7931173705722057       0.23556761903999038
4.29E9                   0.8092602476821341       0.16606546363760616
4.32E9                   0.8193792740333852       0.09553678919682625
4.35E9                   0.8234179176634431       0.024501368998565143
4.38E9                   0.8213642248453511       -0.046518910313306704
4.41E9                   0.8132507723148127       -0.11700383573505704
4.44E9                   0.7991543038985182       -0.18643863341339897
4.47E9                   0.7791950541956706       -0.25431768815019257
4.5E9                    0.753535763162849        -0.32014819205570827
4.53E9                   0.7223803868695168       -0.383453697523524
4.56E9                   0.6859725117585072       -0.4437775488232214
4.59E9                   0.6445934822439807       -0.5006861667787652
4.62E9                   0.5985602543406332       -0.5537721612291203
4.65E9                   0.5482229909194551       -0.6026572471312299
4.68E9                   0.49396241693029136      -0.6469949417558096
4.71E9                   0.4361869552902469       -0.6864730226517625
4.74E9                   0.3753296658175124       -0.7208157286764414
4.77E9                   0.3118450108807489       -0.7497856888776357
4.8E9                    0.24620547197963882      -0.7731855665839056
4.83E9                   0.17889804182712155      -0.7908594080943857
4.86E9                   0.11042061657976775      -0.8026936871571225
4.89E9                   0.041278313645337406     -0.8086180377501556
4.92E9                   -0.028020259262164518    -0.8086056693641173
4.95E9                   -0.09696675669017517     -0.8026734605999432
4.98E9                   -0.16505684217631647     -0.7908817291779376
5.01E9                   -0.23179390048158535     -0.7733336789236988
5.04E9                   -0.2966926867899959      -0.7501745271225334
5.07E9                   -0.3592828843123077      -0.7215903185311605
5.1E9                    -0.41911254212845556     -0.6878064353392551
5.13E9                   -0.47575136642492866     -0.6490858152600104
5.16E9                   -0.5287938394673238      -0.6057268927969647
5.19E9                   -0.5778621428895568      -0.5580612811270983
5.22E9                   -0.6226088640403614      -0.5064512140624265
5.25E9                   -0.6627194666519485      -0.45128676876477347
5.28E9                   -0.6979145091571686      -0.3929828906084303
5.31E9                   -0.7279515954768844      -0.33197624219947514
5.34E9                   -0.7526270443051939      -0.26872189924085144
5.37E9                   -0.7717772638773198      -0.2036899175122939
5.4E9                    -0.7852798208585073      -0.1373617969770088
5.43E9                   -0.7930541942932969      -0.07022687102465625
5.46E9                   -0.7950622086637178      -0.0027786503102557106
5.49E9                   -0.7913081435882834      0.06448884836943468
5.52E9                   -0.7818385214032464      0.13108475790048618
5.55E9                   -0.7667415773504509      0.19652497159816937
5.58E9                   -0.746146420385276       0.26033568046874134
5.61E9                   -0.7202218954577186      0.322056810384799
5.64E9                   -0.6891751603480665      0.3812453349352372
5.67E9                   -0.6532499915200922      0.4374784420883864
5.7E9                    -0.6127248339396181      0.49035653505058613
5.73E9                   -0.5679106096671039      0.5395060489712157
5.76E9                   -0.5191483000893972      0.58458206528043
5.79E9                   -0.46680631796410116     0.6252707046817485
5.82E9                   -0.41127768809608534     0.6612912796781674
5.85E9                   -0.3529770594151105      0.6923981885728374
5.88E9                   -0.29233757459543414     0.7183825362612971
5.91E9                   -0.22980762541003266     0.7390734716484402
5.94E9                   -0.16584752177133844     0.7543392363170901
5.97E9                   -0.10092610092915458     0.7640879226614091
6.0E9                    -0.03551730127628936     0.7682679419179664
