% Model:              three_layers reality at 0.1mm.mph
% Version:            COMSOL 5.6.0.280
% Date:               Feb 22 2022, 20:25
% Table:              表格 1 - 全局计算 1
% freq (Hz)              real(emw.S11) (1)        imag(emw.S11) (1)
300000000                0.406468720831483        -0.7793414594361932
330000000                0.3220075928666919       -0.8150164589233063
360000000                0.2346458976797358       -0.8417834915722783
390000000                0.14528843016879964      -0.8594017728531332
420000000                0.054866378224683744     -0.8677255807371886
450000000                -0.03567472390914013     -0.8667064524685882
480000000                -0.12538656050453448     -0.8563940966854828
510000000                -0.21332921755258366     -0.8369360806885487
540000000                -0.29858199735518093     -0.8085763413340527
570000000                -0.3802538287407304      -0.7716525659776184
600000000                -0.457493210723315       -0.7265924936271775
630000000                -0.5294976146846521      -0.6739091924088213
660000000                -0.5955222640332526      -0.614195377461204
690000000                -0.6548882097299725      -0.548116841811204
720000000                -0.7069896238682256      -0.47640508098892226
750000000                -0.7513002384177188      -0.39984920080019615
780000000                -0.7873788650997605      -0.31928720401400645
810000000                -0.8148739405968682      -0.23559675963951224
840000000                -0.8335270526966575      -0.149685562336007
870000000                -0.8431754138102158      -0.06248139464783173
900000000                -0.8437532605053699      0.02507799260410746
930000000                -0.8352921701896         0.11205506579054435
960000000                -0.817920298377188       0.19752264285091536
990000000                -0.7918605528063097      0.2805738616556955
1020000000               -0.7574277326246529      0.3603318707931471
1050000000               -0.7150246730429087      0.4359591343040552
1080000000               -0.6651374466692053      0.5066662490474785
1110000000               -0.6083296835689795      0.5717201787682766
1140000000               -0.54523608150805        0.6304518177076329
1170000000               -0.4765551861572022      0.6822628053176526
1200000000               -0.4030415288251563      0.726631522991159
1230000000               -0.32549721519287655     0.7631182144015991
1260000000               -0.24476306350393007     0.7913691817922931
1290000000               -0.16170939447755048     0.8111200216710263
1320000000               -0.0772265774196665      0.8221978748582022
1350000000               0.007784561879302388     0.8245226772355416
1380000000               0.09242236593571587      0.8181074087917838
1410000000               0.17579389897691852      0.8030573497388893
1440000000               0.2570243275581687       0.77956836305364
1470000000               0.33526603016359613      0.747924233068773
1500000000               0.4097073424478479       0.7084930994043662
1530000000               0.4795808503965452       0.661723034303452
1560000000               0.5441711492879309       0.6081368199577061
1590000000               0.6028219941372215       0.5483259894755782
1620000000               0.654942774159408        0.4829442020492972
1650000000               0.7000142523806077       0.4127000283470061
1680000000               0.7375935197014443       0.33834922714696347
1710000000               0.7673181218199183       0.2606865979292946
1740000000               0.7889093262969574       0.18053749744028957
1770000000               0.8021745066242734       0.0987491098452235
1800000000               0.8070086294155026       0.01618156155373405
1830000000               0.8033948404886524       -0.0663010284390855
1860000000               0.7914041551846953       -0.14783947259404648
1890000000               0.7711942677860066       -0.2275883258198877
1920000000               0.7430075043243118       -0.30472449897409554
1950000000               0.7071679521596114       -0.3784555961885135
1980000000               0.6640778079355013       -0.44802790464001413
2010000000               0.6142129925099582       -0.5127339749455077
2040000000               0.5581180852789739       -0.5719197438183732
2070000000               0.49640062893494186      -0.6249911666552364
2100000000               0.4297248449962995       -0.6714203460823267
2130000000               0.358804774416282        -0.7107511590366102
2.16E9                   0.28439681046124293      -0.7426043884783912
2.19E9                   0.20729152092032718      -0.7666823355629684
2.22E9                   0.128304579756467        -0.7827727893147638
2.25E9                   0.04826660009877735      -0.7907520278928777
2.28E9                   -0.03198820220632381     -0.7905862239716404
2.31E9                   -0.11163413458937194     -0.7823303623053288
2.34E9                   -0.1898657726795813      -0.7661238869020419
2.37E9                   -0.2659073954664429      -0.7421831810733993
2.4E9                    -0.33901829930439603     -0.7107925929157237
2.43E9                   -0.4084938235455862      -0.6722970147120241
2.46E9                   -0.47366439319587034     -0.6270985146102572
2.49E9                   -0.5338961535907142      -0.5756570104094478
2.52E9                   -0.5885955360480805      -0.5184923737003693
2.55E9                   -0.6372174447298742      -0.45618476565583976
2.58E9                   -0.6792749124811315      -0.3893714736678121
2.61E9                   -0.7143479971309805      -0.31874041213313836
2.64E9                   -0.7420906841334689      -0.24502147096449858
2.67E9                   -0.762235570026259       -0.1689769351226446
2.7E9                    -0.7745966390009918      -0.09139178103987977
2.73E9                   -0.7790705633816416      -0.01306423039904036
2.76E9                   -0.7756368743857717      0.06520332291572899
2.79E9                   -0.7643572228391087      0.14261301073544147
2.82E9                   -0.7453738501179679      0.21837983658443424
2.85E9                   -0.7189073300924241      0.29173968027842345
2.88E9                   -0.6852536147867031      0.361956949363168
2.91E9                   -0.6447804079332408      0.4283318464333421
2.94E9                   -0.5979228924735667      0.4902072081571171
2.97E9                   -0.5451788448191651      0.5469748645244458
3.0E9                    -0.4871031770857186      0.598081464678735
3.03E9                   -0.42430195714450303     0.6430337168540383
3.06E9                   -0.3574259642654636      0.6814029940309616
3.09E9                   -0.2871638447915678      0.7128292630815556
3.12E9                   -0.21423493767874577     0.7370243026587262
3.15E9                   -0.13938184298496115     0.7537741838114714
3.18E9                   -0.0633628080379598      0.7629409960828906
3.21E9                   0.013055994839597318     0.7644638104847927
3.24E9                   0.08910822738924935      0.7583588778797359
3.27E9                   0.16403511305660656      0.7447190666162568
3.3E9                    0.23709306822938708      0.723712546160784
3.33E9                   0.30756117385657994      0.6955807243207857
3.36E9                   0.3747484234209155       0.6606354453341656
3.39E9                   0.43800067886262184      0.6192554561532101
3.42E9                   0.496707258304139        0.5718821507400825
3.45E9                   0.550307068977234        0.5190146092827054
3.48E9                   0.5982941879481171       0.4612039628717556
3.51E9                   0.6402227852215753       0.3990471354277637
3.54E9                   0.6757112829245738       0.33318004282213187
3.57E9                   0.7044456545379081       0.2642703610781614
3.6E9                    0.726181791913843        0.19301000574871896
3.63E9                   0.740746904146323        0.12010748590330256
3.66E9                   0.7480399558225557       0.04628030360937824
3.69E9                   0.7480311956833259       -0.02775243884671846
3.72E9                   0.7407608635380509       -0.1012770826434444
3.75E9                   0.7263371916438054       -0.1735919939624203
3.78E9                   0.7049338388165052       -0.24401360245738932
3.81E9                   0.6767869136150026       -0.3118818545253474
3.84E9                   0.6421917531788331       -0.376565089609459
3.87E9                   0.6014996150842077       -0.437464411120724
3.9E9                    0.5551143974042662       -0.49401768859218365
3.93E9                   0.5034894227210114       -0.5457033721135351
3.96E9                   0.4471242193310214       -0.5920442986794187
3.99E9                   0.38656113779716234      -0.6326116114406125
4.02E9                   0.32238158801676775      -0.6670288074297207
4.05E9                   0.25520169200931414      -0.6949758089230333
4.08E9                   0.18566721856229373      -0.7161928558483617
4.11E9                   0.11444777379478702      -0.7304839698540655
4.14E9                   0.042230332998012446     -0.737719753120946
4.17E9                   -0.03028771590482542     -0.7378393456390967
4.2E9                    -0.1024058050829309      -0.7308514503357644
4.23E9                   -0.1734274867702464      -0.7168344206951844
4.26E9                   -0.2426676292145139      -0.6959354698276633
4.29E9                   -0.30945939184631543     -0.6683690924548698
4.32E9                   -0.37316091520860684     -0.6344147919500975
4.35E9                   -0.4331616966613556      -0.5944141826888212
4.38E9                   -0.4888886350814565      -0.5487675080125131
4.41E9                   -0.5398117193858057      -0.49792959001237985
4.44E9                   -0.5854493156396773      -0.44240521781520264
4.47E9                   -0.625372986507811       -0.3827439877963788
4.5E9                    -0.6592117629423462      -0.3195346284460378
4.53E9                   -0.6866557856303559      -0.25339886813007795
4.56E9                   -0.7074592432683069      -0.1849849297629252
4.59E9                   -0.721442554975182       -0.11496075743862831
4.62E9                   -0.7284937723709336      -0.044007092331566744
4.65E9                   -0.728569209127422       0.02718948480620681
4.68E9                   -0.7216933358244477      0.09794344149989531
4.71E9                   -0.707957997811638       0.16757703564313947
4.74E9                   -0.6875210163319562      0.23542686841492008
4.77E9                   -0.6606042166018331      0.3008502314406804
4.8E9                    -0.6274908972874379      0.36323124094037795
4.83E9                   -0.5885227273474869      0.4219867381319755
4.86E9                   -0.5440960432820624      0.47657190312889103
4.89E9                   -0.4946575309487538      0.5264854925412042
4.92E9                   -0.44069931018071506     0.5712745838282844
4.95E9                   -0.3827534878273331      0.6105387034937747
4.98E9                   -0.3213862925470359      0.6439332350045589
5.01E9                   -0.25719194072425505     0.6711720428250053
5.04E9                   -0.19078639819639528     0.692029303782234
5.07E9                   -0.1228011916901771      0.7063405956244864
5.1E9                    -0.05387738559715452     0.7140033421381036
5.13E9                   0.01534022038301579      0.7149767398141159
5.16E9                   0.08420868427750233      0.7092812808291242
5.19E9                   0.15209236821139652      0.6969979390505652
5.22E9                   0.21836831226248243      0.6782670145271655
5.25E9                   0.28243157213020725      0.6532865678654697
5.28E9                   0.34370048343035436      0.6223103519944083
5.31E9                   0.40162174206688184      0.5856451813110869
5.34E9                   0.4556751555531772       0.5436477536845111
5.37E9                   0.5053779436801289       0.496721021958213
5.4E9                    0.5502885366885861       0.4453102588510396
5.43E9                   0.5900099009550347       0.3898989525841288
5.46E9                   0.624192480473559        0.33100461778594137
5.49E9                   0.6525368570856493       0.2691745333538099
5.52E9                   0.6747962044296636       0.20498135454660527
5.55E9                   0.6907785546818069       0.13901850992902892
5.58E9                   0.7003488324494627       0.07189529142391285
5.61E9                   0.7034305527696081       0.004231575010263863
5.64E9                   0.7000070418786639       -0.06334783610326832
5.67E9                   0.6901220296880362       -0.13021918404702687
5.7E9                    0.6738794893880297       -0.1957659106150813
5.73E9                   0.6514426638851476       -0.2593848050946567
5.76E9                   0.62303230874906         -0.320491944127671
5.79E9                   0.5889242672987361       -0.37852826366648723
5.82E9                   0.5494465386637906       -0.4329646882969007
5.85E9                   0.5049759827542374       -0.48330683531837293
5.88E9                   0.45593473854423366      -0.5290993665823216
5.91E9                   0.4027863523321605       -0.5699300584677837
5.94E9                   0.3460315607387585       -0.6054336105873643
5.97E9                   0.28620366708009526      -0.6352951492448093
6.0E9                    0.22386348151500357      -0.6592533322353615
