% Model:              three_layers reality at 0.1mm.mph
% Version:            COMSOL 5.6.0.280
% Date:               Mar 1 2022, 09:47
% Table:              表格 1 - 全局计算 1
% freq (Hz)              real(emw.S11) (1)        imag(emw.S11) (1)
300000000                0.5609103474012817       -0.7546722380988014
330000000                0.48943723911919934      -0.801351837558893
360000000                0.4142447876844399       -0.8413927769965218
390000000                0.3359201627630771       -0.8744993809404165
420000000                0.25507908436254817      -0.900425832484705
450000000                0.17236065353018992      -0.9189796989012795
480000000                0.08842198964881885      -0.930024708239678
510000000                0.003932710666487616     -0.9334828447258625
540000000                -0.08043070849503363     -0.9293358051286129
570000000                -0.16399065937554572     -0.9176258410598287
600000000                -0.24607416275295668     -0.8984560032251567
630000000                -0.32601862636206597     -0.8719897986329074
660000000                -0.4031775490409511      -0.8384502704245054
690000000                -0.4769261223246053      -0.7981185108669883
720000000                -0.5466666775295056      -0.7513316207157088
750000000                -0.6118339270211561      -0.6984801317101987
780000000                -0.6718999477672187      -0.6400049134943719
810000000                -0.7263788560907511      -0.5763935914601565
840000000                -0.7748311247209982      -0.5081765072095716
870000000                -0.8168674959745554      -0.43592225829540676
900000000                -0.8521524478283271      -0.3602328598303762
930000000                -0.8804071746342528      -0.28173857468461566
960000000                -0.9014120489190045      -0.20109246376150516
990000000                -0.9150085364584902      -0.11896471170500776
1020000000               -0.9211005432074834      -0.036036786258701374
1050000000               -0.9196551793080225      0.0470045082185278
1080000000               -0.9107029323507613      0.12947302085096593
1110000000               -0.8943372493414259      0.21068922564463494
1140000000               -0.8707135339412191      0.2899861121377909
1170000000               -0.8400475726885791      0.3667149344453678
1200000000               -0.8026134105855385      0.440250760739748
1230000000               -0.7587407030521172      0.5099977674777455
1260000000               -0.7088115768374954      0.575394227517429
1290000000               -0.6532570380799225      0.6359171450288179
1320000000               -0.5925529699864226      0.6910864958883108
1350000000               -0.5272157665066659      0.740469037559071
1380000000               -0.457797651406659       0.7836816583724595
1410000000               -0.3848817341986595      0.8203942424082022
1440000000               -0.3090768556605543      0.8503320323030998
1470000000               -0.2310122764057585      0.8732774783767395
1500000000               -0.1513322613837172      0.8890715686202605
1530000000               -0.07069061250644637     0.897614639646551
1560000000               0.010254800160971734     0.8988666741525446
1590000000               0.09084746034134934      0.8928470953716611
1620000000               0.17043753497333985      0.8796340734233781
1650000000               0.24838706830663426      0.8593633624557386
1680000000               0.3240750014378101       0.8322266908718012
1710000000               0.396901981260023        0.798469729817175
1740000000               0.46629492654342447      0.7583896674745731
1770000000               0.5317113224438907       0.712332418553677
1800000000               0.5926432183538083       0.6606894997623175
1830000000               0.6486209075172845       0.6038946030403571
1860000000               0.6992162702109351       0.5424198989229523
1890000000               0.7440457656626688       0.4767721026821658
1920000000               0.7827730609244168       0.4074883358741632
1950000000               0.8151112880536019       0.335131815636567
1980000000               0.8408249238259032       0.2602874036151948
2010000000               0.8597312893079239       0.18355704527171768
2040000000               0.8717016694363569       0.10555512908760051
2070000000               0.8766620556894857       0.02690379276671371
2100000000               0.8745935173363932       -0.05177180004784968
2130000000               0.8655322078944696       -0.1298481944914295
2.16E9                   0.8495690114294434       -0.2067083800422166
2.19E9                   0.8268488252084009       -0.2817465251195984
2.22E9                   0.7975694571096263       -0.35437271414645144
2.25E9                   0.7619800862073642       -0.42401768328488054
2.28E9                   0.720379200928338        -0.4901375140338695
2.31E9                   0.673111918606886        -0.552218165578536
2.34E9                   0.6205666522726099       -0.6097796222162295
2.37E9                   0.5631712593605344       -0.6623793781632111
2.4E9                    0.5013890250017868       -0.7096150931397666
2.43E9                   0.43571491627825093      -0.751126556952487
2.46E9                   0.36667232705118935      -0.7865974133493588
2.49E9                   0.29481011256372724      -0.8157571186839014
2.52E9                   0.22069943048849316      -0.8383832856283532
2.55E9                   0.1449299845860553       -0.8543041641329542
2.58E9                   0.0681055798755331       -0.863400847913284
2.61E9                   -0.00916083721437655     -0.8656088979201648
2.64E9                   -0.08625239809341725     -0.8609192709383033
2.67E9                   -0.16255358677133902     -0.8493785822977933
2.7E9                    -0.23745545260970805     -0.8310887820388108
2.73E9                   -0.31036070574494706     -0.806206317477752
2.76E9                   -0.38068866934074475     -0.7749408311180588
2.79E9                   -0.44788006946876674     -0.7375534222457917
2.82E9                   -0.5114016402905027      -0.6943544890064055
2.85E9                   -0.5707505164233551      -0.6457011640908252
2.88E9                   -0.6254583798773452      -0.5919943583365133
2.91E9                   -0.6750953263151707      -0.5336754302988308
2.94E9                   -0.7192734146506168      -0.4712225047110574
2.97E9                   -0.7576498649246801      -0.4051464678726784
3.0E9                    -0.7899298716762106      -0.33598667281665207
3.03E9                   -0.8158690031925252      -0.2643063916107477
3.06E9                   -0.8352751610191689      -0.19068805613277662
3.09E9                   -0.848010078858096       -0.1157283318977318
3.12E9                   -0.8539903451531778      -0.0400330719825677
3.15E9                   -0.8531879392199567      0.03578780011960387
3.18E9                   -0.8456302765198114      0.11112542912339243
3.21E9                   -0.8313997643937651      0.1853771385089922
3.24E9                   -0.8106328750254033      0.25795146460912427
3.27E9                   -0.7835187474042483      0.3282730672001463
3.3E9                    -0.750297334483976       0.3957874720157592
3.33E9                   -0.7112571155110325      0.45996560286139965
3.36E9                   -0.6667323967543678      0.520308063496758
3.39E9                   -0.617100226841256       0.5763491315350052
3.42E9                   -0.5627769557146164      0.6276604286762064
3.45E9                   -0.5042144695604402      0.6738542331021923
3.48E9                   -0.44189613779971265     0.7145864017790935
3.51E9                   -0.376332513018482       0.7495588726436507
3.54E9                   -0.3080568300801074      0.7785217202920478
3.57E9                   -0.23762035625639372     0.8012747442870595
3.6E9                    -0.16558764910437704     0.8176685769270198
3.63E9                   -0.0925317816552747      0.8276053071330728
3.66E9                   -0.019029594455179932    0.8310386279255969
3.69E9                   0.05434296917364705      0.8279735254503575
3.72E9                   0.12701539383141275      0.8184655364780608
3.75E9                   0.19842694499194594      0.8026196084557459
3.78E9                   0.2680308082883592       0.7805886019175555
3.81E9                   0.3352979884674394       0.7525714798146604
3.84E9                   0.39972095253151657      0.7188112314445845
3.87E9                   0.4608170155642194       0.6795925779036136
3.9E9                    0.5181314817486554       0.6352394989934702
3.93E9                   0.5712405635151158       0.5861126074475406
3.96E9                   0.6197541038715407       0.5326063776888098
3.99E9                   0.6633181184786583       0.47514621880640634
4.02E9                   0.7016171570641959       0.4141853710584913
4.05E9                   0.7343764637131891       0.35020160587145716
4.08E9                   0.761363899075737        0.283693720843825
4.11E9                   0.7823915798366574       0.21517783922885858
4.14E9                   0.7973171930855689       0.1451835424996636
4.17E9                   0.8060449541141858       0.07424987908354609
4.2E9                    0.8085261914505644       0.0029212998931810604
4.23E9                   0.8047595585365571       -0.0682564293947313
4.26E9                   0.7947908835325788       -0.1387402958853436
4.29E9                   0.7787126753468997       -0.20799405350990657
4.32E9                   0.7566633047351243       -0.27549216012849964
4.35E9                   0.7288258756283033       -0.3407236213738578
4.38E9                   0.695426796265111        -0.4031957277022592
4.41E9                   0.6567340547206811       -0.4624376698602271
4.44E9                   0.6130552010424385       -0.5180040138833271
4.47E9                   0.5647350389742247       -0.5694780118971663
4.5E9                    0.5121530337640481       -0.6164747210553037
4.53E9                   0.4557204479454477       -0.6586439007097062
4.56E9                   0.39587722310187456      -0.6956726580279533
4.59E9                   0.33308863163536667      -0.7272878145946062
4.62E9                   0.26784172760281105      -0.7532579709401622
4.65E9                   0.20064162869946092      -0.7733952520546831
4.68E9                   0.13200766188189342      -0.7875567235506846
4.71E9                   0.062469402315036865     -0.7956454738428865
4.74E9                   -0.0074373693342534965   -0.7976113604129383
4.77E9                   -0.07717477107293239     -0.7934514170513083
4.8E9                    -0.14620696688752374     -0.7832099143364962
4.83E9                   -0.21400433606440716     -0.7669780600352892
4.86E9                   -0.2800476358835095      -0.7448933228274821
4.89E9                   -0.3438321189611331      -0.7171383644519325
4.92E9                   -0.4048715570924201      -0.6839395728417181
4.95E9                   -0.46270211795066896     -0.6455652007343154
4.98E9                   -0.5168860406259116      -0.6023231284172587
5.01E9                   -0.5670150617782647      -0.5545582826681693
5.04E9                   -0.6127135547322311      -0.5026497543366949
5.07E9                   -0.6536413579693514      -0.4470076620273218
5.1E9                    -0.6894962840906277      -0.38806980770052063
5.13E9                   -0.7200163119668851      -0.3262981615526915
5.16E9                   -0.7449814695123493      -0.26217520038940145
5.19E9                   -0.764215409849364       -0.19620011092896925
5.22E9                   -0.7775866709809018      -0.12888486331445176
5.25E9                   -0.7850095943397082      -0.06075016516888026
5.28E9                   -0.7864448691192213      0.007678677337948201
5.31E9                   -0.7818996737358497      0.07587594496736845
5.34E9                   -0.7714274031029354      0.14331967621331218
5.37E9                   -0.7551269939176329      0.2094957608587431
5.4E9                    -0.7331418798597661      0.2739019057575646
5.43E9                   -0.705658617165651       0.3360514421253265
5.46E9                   -0.6729052170507073      0.39547696253068865
5.49E9                   -0.635149209026789       0.4517337869655924
5.52E9                   -0.5926954446782061      0.5044032586648498
5.55E9                   -0.545883640349859       0.5530958633665117
5.58E9                   -0.4950856524230197      0.5974541539923202
5.61E9                   -0.44070248133661266     0.6371554497691261
5.64E9                   -0.3831610096049901      0.6719142678714278
5.67E9                   -0.3229104941894565      0.7014844391267142
5.7E9                    -0.260418852304659       0.7256608605411347
5.73E9                   -0.1961687984196864      0.7442808485137185
5.76E9                   -0.13065390198321047     0.7572250777977239
5.79E9                   -0.06437463446510937     0.7644181171307665
5.82E9                   0.0021655412054480297    0.7658285937539792
5.85E9                   0.06846400961504653      0.7614690268093223
5.88E9                   0.1340227624647218       0.7513953617421794
5.91E9                   0.19835208054978573      0.7357062205221903
5.94E9                   0.26097413589782087      0.7145418660264444
5.97E9                   0.3214264992148291       0.6880828708952205
6.0E9                    0.3792655244861598       0.6565484830993273
