% Model:              three_layers reality at 0.1mm.mph
% Version:            COMSOL 5.6.0.280
% Date:               Mar 1 2022, 09:45
% Table:              表格 1 - 全局计算 1
% freq (Hz)              real(emw.S11) (1)        imag(emw.S11) (1)
300000000                0.5435338095425785       -0.7329783368880657
330000000                0.47430542762479233      -0.7779951610736613
360000000                0.40148793806043365      -0.8166149787687772
390000000                0.325648638276515        -0.8485445914521507
420000000                0.2473833966643703       -0.8735418494914449
450000000                0.1673109859931845       -0.8914182769272645
480000000                0.08606750798966445      -0.902041168161714
510000000                0.004300833176469432     -0.9053351658094426
540000000                -0.0773349719943564      -0.9012833213765346
570000000                -0.15818522969009888     -0.8899276366492256
600000000                -0.2376002294204983      -0.8713690828960519
630000000                -0.31494077126346487     -0.8457670959280549
660000000                -0.38958363660055606     -0.8133385476806844
690000000                -0.4609269447604225      -0.7743561983996152
720000000                -0.5283953502772981      -0.7291466378493631
750000000                -0.5914450341609142      -0.6780877286464956
780000000                -0.6495684413699316      -0.6216055703233938
810000000                -0.7022987180021869      -0.560171007631495
840000000                -0.749213802511288       -0.49429571236263625
870000000                -0.7899401279334466      -0.42452787320194063
900000000                -0.8241558953608202      -0.35144753312230237
930000000                -0.8515938829419678      -0.2756616185088428
960000000                -0.8720437592959357      -0.19779870862245874
990000000                -0.8853538758164892      -0.1185035972888
1020000000               -0.8914325180265102      -0.03843170199172304
1050000000               -0.8902486026078062      0.04175662273573311
1080000000               -0.8818318131665794      0.12140180902882591
1110000000               -0.8662721746000461      0.1998507778037273
1140000000               -0.8437190726270289      0.27646256076006576
1170000000               -0.8143797316703023      0.35061378521399145
1200000000               -0.7785171706055938      0.4217039669294151
1230000000               -0.7364476619631284      0.4891605587610798
1260000000               -0.6885377255320093      0.5524437070532132
1290000000               -0.6352006924053778      0.6110506715698487
1320000000               -0.5768928796351925      0.664519869899213
1350000000               -0.5141094193191087      0.7124345123391351
1380000000               -0.4473797887157446      0.7544257988891279
1410000000               -0.3772630899358922      0.7901756557534256
1440000000               -0.3043431291702442      0.8194189944475069
1470000000               -0.22922334578668002     0.8419454824787156
1500000000               -0.15252164150453798     0.8576008201259953
1530000000               -0.07486515894025612     0.8662875232380416
1560000000               0.0031149426575575847    0.8679652170180451
1590000000               0.08078866849774934      0.862650450409878
1620000000               0.15753228284407525      0.850416044971701
1650000000               0.23273327640017066      0.8313899958319224
1680000000               0.3057951688418772       0.8057539456245222
1710000000               0.3761421121815772       0.7737412550487696
1740000000               0.4432232639198354       0.7356346959900508
1770000000               0.5065169023912786       0.6917637949583106
1800000000               0.5655342600756573       0.6425018559850957
1830000000               0.6198230540217268       0.588262693069634
1860000000               0.6689706956348339       0.529497103004033
1890000000               0.7126071654034984       0.4666891095585121
1920000000               0.7504075409633754       0.4003520101617394
1950000000               0.7820941698658768       0.3310242559632552
1980000000               0.8074384813054558       0.25926519553610494
2010000000               0.8262624337360521       0.18565071173707834
2040000000               0.838439598137709        0.11076877969452109
2070000000               0.8438958791665456       0.03521497177139105
2100000000               0.8426098784541708       -0.04041206795991481
2130000000               0.8346129049530202       -0.11551516219819886
2.16E9                   0.8199886347573977       -0.1895031407271091
2.19E9                   0.7988724147386943       -0.26179537816291715
2.22E9                   0.7714501874845571       -0.3318263276959401
2.25E9                   0.7379569890280951       -0.3990500389534288
2.28E9                   0.6986749442171569       -0.4629446113353248
2.31E9                   0.653930684003655        -0.5230164617271389
2.34E9                   0.6040921766307424       -0.5788041980492838
2.37E9                   0.5495651232966189       -0.6298818599335881
2.4E9                    0.4907892536781274       -0.675861412117879
2.43E9                   0.4282348984853867       -0.7163946607822113
2.46E9                   0.3623999860832042       -0.7511750205829126
2.49E9                   0.2938072277938783       -0.7799395363014932
2.52E9                   0.22300103765267726      -0.8024712376586051
2.55E9                   0.15054384835380683      -0.8186015550712814
2.58E9                   0.07701178602158212      -0.8282124104686517
2.61E9                   0.00298989439473214      -0.8312377196032259
2.64E9                   -0.07093284833870417     -0.8276642289920016
2.67E9                   -0.14416853886076506     -0.8175317319497284
2.7E9                    -0.21613528599062903     -0.8009327440886816
2.73E9                   -0.28626203312243964     -0.7780117058990836
2.76E9                   -0.35399324626575324     -0.7489637551064297
2.79E9                   -0.41879345169949844     -0.7140330921443465
2.82E9                   -0.4801516024711514      -0.6735109521211409
2.85E9                   -0.5375852469924459      -0.6277331940835018
2.88E9                   -0.5906444685741059      -0.5770775201356556
2.91E9                   -0.6389155622045158      -0.5219603409879197
2.94E9                   -0.6820244144733476      -0.4628333092015554
2.97E9                   -0.7196395533953235      -0.4001795463703626
3.0E9                    -0.7514748371801225      -0.3345095949850032
3.03E9                   -0.7772917539393038      -0.266357130028426
3.06E9                   -0.7969013082091563      -0.19627446891567185
3.09E9                   -0.8101654744801303      -0.12482792152859055
3.12E9                   -0.8169982028282796      -0.05259302432840988
3.15E9                   -0.8173659668525097      0.019850295832601443
3.18E9                   -0.8112878494335827      0.09192258176807921
3.21E9                   -0.7988351671127994      0.16304968364419692
3.24E9                   -0.7801306389137661      0.2326675287017031
3.27E9                   -0.7553471100487141      0.3002267790330072
3.3E9                    -0.724705845099729       0.3651973351530661
3.33E9                   -0.688474408829446       0.4270726453349729
3.36E9                   -0.6469641559700827      0.4853737826703586
3.39E9                   -0.6005273542626756      0.5396532537814623
3.42E9                   -0.5495539679583437      0.5894985048638742
3.45E9                   -0.49446813230847664     0.6345350923241697
3.48E9                   -0.4357243533701054      0.6744294871826048
3.51E9                   -0.373803472047366       0.7088914848051462
3.54E9                   -0.3092084363546704      0.737676195292954
3.57E9                   -0.24245993095417964     0.7605855953617593
3.6E9                    -0.17409191723625403     0.7774696300442809
3.63E9                   -0.10464713937667476     0.7882268618084717
3.66E9                   -0.034672651398354404    0.7928046746050643
3.69E9                   0.03528458317273149      0.7911990498549315
3.72E9                   0.10468197276447172      0.7834539392707665
3.75E9                   0.17298542069426068      0.7696602656233494
3.78E9                   0.23967325723656163      0.7499545874662015
3.81E9                   0.3042399568041722       0.7245174677717501
3.84E9                   0.3661996265551281       0.6935715887452889
3.87E9                   0.42508926494998517      0.6573796537870543
3.9E9                    0.480471800912224        0.6162421106033217
3.93E9                   0.5319389325496952       0.5704947164217495
3.96E9                   0.5791137848257819       0.5205059498452262
3.99E9                   0.6216533969241337       0.4666742590379041
4.02E9                   0.6592510340522229       0.40942512832287115
4.05E9                   0.6916383007769519       0.3492079476103553
4.08E9                   0.7185870192463377       0.28649268089284313
4.11E9                   0.7399108303163122       0.22176634695032607
4.14E9                   0.7554664793483319       0.1555293424045624
4.17E9                   0.7651547594147545       0.08829164973826187
4.2E9                    0.7689210991785225       0.020568978346577987
4.23E9                   0.7667557967528229       -0.04712111480498694
4.26E9                   0.7586939113676547       -0.11426308515397643
4.29E9                   0.7448148299915914       -0.18034721087010877
4.32E9                   0.7252415261244836       -0.24487333206416034
4.35E9                   0.7001395242948526       -0.30735450357674454
4.38E9                   0.66971557868204         -0.3673205480568224
4.41E9                   0.634216070064754        -0.42432149449763207
4.44E9                   0.5939251235510117       -0.47793088358028935
4.47E9                   0.5491624506889913       -0.5277489168728524
4.5E9                    0.5002809230860253       -0.5734054236222987
4.53E9                   0.44766388976808075      -0.6145626172294119
4.56E9                   0.39172225602843497      -0.6509176140661105
4.59E9                   0.33289134685713545      -0.6822046897093733
4.62E9                   0.27162758229156286      -0.7081972519753494
4.65E9                   0.20840499444801122      -0.728709515727765
4.68E9                   0.14371161595816062      -0.7435978703641981
4.71E9                   0.07804576677628178      -0.7527619357229487
4.74E9                   0.01191226212189882      -0.7561453041869217
4.77E9                   -0.0541814398431578      -0.7537359653649599
4.8E9                    -0.11972913302623543     -0.7455664054083855
4.83E9                   -0.18422978068951432     -0.7317133682280276
4.86E9                   -0.24719142723596876     -0.7122972634572182
4.89E9                   -0.3081350677911962      -0.6874812082280096
4.92E9                   -0.3665984307361265      -0.6574696971400374
4.95E9                   -0.4221396239195705      -0.6225069059314966
4.98E9                   -0.474340595841275       -0.5828746470358365
5.01E9                   -0.522810368790472       -0.5388900069491177
5.04E9                   -0.5671880109047679      -0.4909027039651581
5.07E9                   -0.6071453267132182      -0.43929220861965174
5.1E9                    -0.6423892585370943      -0.3844646668936611
5.13E9                   -0.672664000681281       -0.32684965821375966
5.16E9                   -0.6977528315733021      -0.2668968085154117
5.19E9                   -0.7174796638229655      -0.20507226790807961
5.22E9                   -0.7317103004854992      -0.14185505803528078
5.25E9                   -0.7403533728477814      -0.07773330020163245
5.28E9                   -0.7433609286076305      -0.013200350398299998
5.31E9                   -0.7407286445533012      0.05124911448338616
5.34E9                   -0.7324956543426411      0.11512300282215958
5.37E9                   -0.7187440031461958      0.17793565012272872
5.4E9                    -0.6995977578864214      0.23921155157604038
5.43E9                   -0.6752218083872075      0.2984889582707037
5.46E9                   -0.6458203902604227      0.3553233262258072
5.49E9                   -0.611635348868738       0.40929061640380326
5.52E9                   -0.5729441510555914      0.45999044384252996
5.55E9                   -0.5300576421725197      0.5070490670536342
5.58E9                   -0.4833175428533242      0.5501221978389402
5.61E9                   -0.4330936832360789      0.5888976003927118
5.64E9                   -0.37978098161127627     0.6230974391663605
5.67E9                   -0.3237961885553315      0.6524803302284876
5.7E9                    -0.2655744346524939      0.6768430530287938
5.73E9                   -0.20556563616320356     0.6960218906348465
5.76E9                   -0.14423082253938305     0.7098935862014119
5.79E9                   -0.08203844758234613     0.7183759265745325
5.82E9                   -0.019460731276064538    0.721427982144236
5.85E9                   0.04302994223838344      0.7190500377910596
5.88E9                   0.10496456334793187      0.7112832417176637
5.91E9                   0.16588097250199924      0.6982089832442406
5.94E9                   0.22532726798925928      0.6799479965136467
5.97E9                   0.28286512961467825      0.6566591809323877
6.0E9                    0.3380730301283393       0.6285381319845188
