% Model:              three_layers reality at 0.1mm.mph
% Version:            COMSOL 5.6.0.280
% Date:               Feb 26 2022, 13:08
% Table:              表格 1 - 全局计算 1
% freq (Hz)              real(emw.S11) (1)        imag(emw.S11) (1)
300000000                0.4130248711952087       -0.7915601184377152
330000000                0.32720447864634394      -0.8277563122391824
360000000                0.2384590191449524       -0.8549079300987471
390000000                0.14770137890548565      -0.8727727800958249
420000000                0.05587282418708117      -0.8812038100869751
450000000                -0.036069617725221194    -0.8801519485424566
480000000                -0.12716518712883448     -0.8696673984947778
510000000                -0.21646096448445837     -0.8498995485560216
540000000                -0.30302302129750996     -0.8210956048320424
570000000                -0.3859471261234753      -0.78359802184517
600000000                -0.4643689530364017      -0.7378408007657069
630000000                -0.5374737212210952      -0.6843447229370603
660000000                -0.6045051870628853      -0.6237115907371932
690000000                -0.664773908808827       -0.5566175538513045
720000000                -0.717664705541226       -0.48380560664586486
750000000                -0.7626432380685617      -0.40607734956492725
780000000                -0.7992616467804992      -0.324284114495749
810000000                -0.8271631908160837      -0.23931756047719954
840000000                -0.8460858436205232      -0.1520998511402969
870000000                -0.8558648114169674      -0.06357352940345078
900000000                -0.8564339534222418      0.025308792204782618
930000000                -0.8478260953123535      0.11359480623940166
960000000                -0.8301722402630407      0.20034283067677758
990000000                -0.8036996946940476      0.2846319571774778
1020000000               -0.7687291384102309      0.36557191276354617
1050000000               -0.7256706808385719      0.44231252499301155
1080000000               -0.6750189566740636      0.5140526861795058
1110000000               -0.6173473246826792      0.5800487198373717
1140000000               -0.5533012433156278      0.639622060262845
1170000000               -0.4835909053102701      0.6921661655516114
1200000000               -0.40898322102190515     0.7371525942288502
1230000000               -0.33029324638180335     0.774136186433642
1260000000               -0.248375156406384       0.8027593016284424
1290000000               -0.1641128687273481      0.8227550763868561
1320000000               -0.07841042407104766     0.8339496773981401
1350000000               0.007817768664406088     0.8362635366347807
1380000000               0.09365671515330867      0.8297115670460992
1410000000               0.17820054023671955      0.8144023685035372
1440000000               0.26056201106571886      0.7905364445982486
1470000000               0.3398817793879239       0.7584034612117926
1500000000               0.41533724807812666      0.7183785875925974
1530000000               0.486150972941927        0.6709179696962524
1560000000               0.5515985171620413       0.6165533938291126
1590000000               0.6110156829742124       0.5558862061062891
1620000000               0.6638050528409288       0.48958055991050453
1650000000               0.7094417808720159       0.4183560690880457
1680000000               0.7474785837286959       0.34297994957943584
1710000000               0.7775498894043893       0.2642587359641883
1740000000               0.7993751115465358       0.18302966227291867
1770000000               0.8127610264226395       0.10015179851199843
1800000000               0.8176032392825257       0.016497035181976327
1830000000               0.8138867365265363       -0.06705899179679423
1860000000               0.8016855298190801       -0.14964594467513234
1890000000               0.7811614079339585       -0.23040770693958282
1920000000               0.7525618216642599       -0.3085111008165768
1950000000               0.716216936289575        -0.38315431935079397
1980000000               0.6725358945803077       -0.453575000770295
2010000000               0.622002340256757        -0.5190578829909586
2040000000               0.5651692559798217       -0.578941989229559
2070000000               0.5026531686436412       -0.6326273124264633
2100000000               0.4351277640993084       -0.679580984979498
2130000000               0.3633169274403407       -0.7193429374487388
2.16E9                   0.2879871773682256       -0.7515310544866636
2.19E9                   0.2099393918725605       -0.7758458070152122
2.22E9                   0.1299996429896165       -0.7920742416382481
2.25E9                   0.04900892651603553      -0.8000930042849972
2.28E9                   -0.03218829449166023     -0.7998697691264176
2.31E9                   -0.11275636407367867     -0.7914621698243394
2.34E9                   -0.191880359159185       -0.7750134271640299
2.37E9                   -0.268775721873353       -0.7507447468941707
2.4E9                    -0.3426937450314136      -0.7189461848447749
2.43E9                   -0.412922692536138       -0.6799690093092243
2.46E9                   -0.47878683601024874     -0.6342221178297345
2.49E9                   -0.5396470097422615      -0.5821725595122909
2.52E9                   -0.5949050842987891      -0.524347572742607
2.55E9                   -0.6440121010105051      -0.4613349129041875
2.58E9                   -0.6864779294311444      -0.39377969278073494
2.61E9                   -0.7218802020625139      -0.32237786458188494
2.64E9                   -0.7498712653278914      -0.24786751646624383
2.67E9                   -0.7701829010610686      -0.1710192130775921
2.7E9                    -0.7826291215565752      -0.09262619776896235
2.73E9                   -0.7871074676806886      -0.013494847479530642
2.76E9                   -0.7835991589043418      0.06556449665400207
2.79E9                   -0.7721683185814169      0.1437463172064884
2.82E9                   -0.7529603980213329      0.2202583481735578
2.85E9                   -0.7261998628005597      0.2943296522252136
2.88E9                   -0.6921871761013721      0.36521833556572725
2.91E9                   -0.6512951048262404      0.432218869523702
2.94E9                   -0.6039643759100586      0.49466897460970183
2.97E9                   -0.5506987166940731      0.5519560159297493
3.0E9                    -0.49205932164880806     0.6035228562876501
3.03E9                   -0.4286587962073699      0.6488731147906209
3.06E9                   -0.3611546363332119      0.6875757828219444
3.09E9                   -0.2902423091661072      0.7192691553903242
3.12E9                   -0.21664800529164144     0.7436640435479449
3.15E9                   -0.14112113658156353     0.7605462422112357
3.18E9                   -0.06442665487788783     0.769778236738294
3.21E9                   0.012662733864431354     0.7713001401689389
3.24E9                   0.08937438790458359      0.7651298603520607
3.27E9                   0.1649435118624247       0.7513625014721468
3.3E9                    0.23862083746087084      0.7301690074395982
3.33E9                   0.3096801395000718       0.7017940554290897
3.36E9                   0.3774255230707342       0.6665532074506237
3.39E9                   0.4411984136329274       0.6248293278205466
3.42E9                   0.5003841739411943       0.5770682767525042
3.45E9                   0.5544182613484531       0.5237738972396391
3.48E9                   0.6027918280628164       0.4655023259682925
3.51E9                   0.6450566588527779       0.40285568017557216
3.54E9                   0.6808293396321731       0.33647520056429114
3.57E9                   0.7097945604976936       0.2670339624854871
3.6E9                    0.731707480526465        0.19522929795155108
3.63E9                   0.7463951179469146       0.12177509278474363
3.66E9                   0.7537567730737319       0.04739413065819292
3.69E9                   0.7537635350334831       -0.0271893524741707
3.72E9                   0.7464569605456206       -0.10125676114937943
3.75E9                   0.731947041596709        -0.1741017661700858
3.78E9                   0.7104096011980577       -0.24503638163074604
3.81E9                   0.6820832746690186       -0.3133964502096568
3.84E9                   0.6472662443562168       -0.37854654453811837
3.87E9                   0.6063128867277744       -0.4398843559494018
3.9E9                    0.5596304486707505       -0.49684470760263305
3.93E9                   0.5076757903020017       -0.5489033738976871
3.96E9                   0.45095212861241407      -0.5955808873274255
3.99E9                   0.39000562054212384      -0.6364464554923526
4.02E9                   0.32542157019144646      -0.6711220055993077
4.05E9                   0.2578200543422577       -0.6992862527959113
4.08E9                   0.18785083098972458      -0.7206785902786433
4.11E9                   0.11618750364878566      -0.7351025515110827
4.14E9                   0.04352102586908764      -0.7424286068337607
4.17E9                   -0.029447283992927356    -0.7425961170832225
4.2E9                    -0.10201300533762421     -0.735614352600999
4.23E9                   -0.1734759455440127      -0.721562571524747
4.26E9                   -0.2431473657202882      -0.7005892160135034
4.29E9                   -0.3103569843385594      -0.6729103179784847
4.32E9                   -0.3744596936370629      -0.638807206845484
4.35E9                   -0.4348419593982838      -0.5986235901367661
4.38E9                   -0.49092788715187113     -0.5527620476929614
4.41E9                   -0.5421849296401197      -0.5016799561263949
4.44E9                   -0.5881291903680045      -0.4458848504375772
4.47E9                   -0.6283302569739944      -0.3859292363691938
4.5E9                    -0.6624154842607667      -0.32240488631159203
4.53E9                   -0.6900736442339123      -0.2559366771100021
4.56E9                   -0.7110578699906065      -0.18717605402101903
4.59E9                   -0.7251878405402824      -0.11679422613381288
4.62E9                   -0.7323511818989726      -0.04547521101635471
4.65E9                   -0.7325040921712417      0.026091153557614793
4.68E9                   -0.7256712285581105      0.09721612720495615
4.71E9                   -0.7119449142196088      0.16721883715836353
4.74E9                   -0.6914837256816048      0.23543285731092226
4.77E9                   -0.6645105049752238      0.3012125792018845
4.8E9                    -0.6313098114199127      0.36393936769813046
4.83E9                   -0.5922247993980835      0.42302748063467926
4.86E9                   -0.5476534953398103      0.4779296998699228
4.89E9                   -0.4980444581547227      0.5281425839582453
4.92E9                   -0.4438918413520579      0.5732112254587243
4.95E9                   -0.3857299225241386      0.6127333897432212
4.98E9                   -0.32412721369943615     0.6463629309271001
5.01E9                   -0.25968030227802535     0.6738124210187073
5.04E9                   -0.19300758772951224     0.6948549833216477
5.07E9                   -0.12474306855954219     0.7093253799227183
5.1E9                    -0.05553029578276317     0.7171204528427317
5.13E9                   0.013983451004883919     0.7181990442453036
5.16E9                   0.08315277621824323      0.7125815110792323
5.19E9                   0.1513396320542725       0.7003489014903389
5.22E9                   0.21791870785783446      0.6816417890289479
5.25E9                   0.2822827817074721       0.6566586963694476
5.28E9                   0.34384799744626077      0.6256540161021337
5.31E9                   0.4020589567738355       0.5889353684575205
5.34E9                   0.4563934812535717       0.5468604112485046
5.37E9                   0.5063669224357387       0.4998331986290874
5.4E9                    0.551535967974527        0.4483002326965945
5.43E9                   0.5915019736085333       0.39274634560194854
5.46E9                   0.6259139092871977       0.33369049711120735
5.49E9                   0.6544710226191524       0.27168149964634947
5.52E9                   0.6769252949315935       0.20729361831288778
5.55E9                   0.6930837093870992       0.14112195660365706
5.58E9                   0.7028102858672896       0.073777535925994
5.61E9                   0.7060277798212223       0.005882006304525099
5.64E9                   0.7027189038689639       -0.06193802021040195
5.67E9                   0.6929269210738508       -0.1290569519311424
5.7E9                    0.676755485121441        -0.19485638199165614
5.73E9                   0.6543676668321798       -0.2587312466928537
5.76E9                   0.6259841963823384       -0.32009577620595614
5.79E9                   0.5918810366709718       -0.37838907743510375
5.82E9                   0.5523864486430865       -0.43308027401586574
5.85E9                   0.5078776926791584       -0.48367322056383943
5.88E9                   0.4587774427040703       -0.5297108641129465
5.91E9                   0.40554990991178497      -0.5707793231788798
5.94E9                   0.34869662097101684      -0.606511705230856
5.97E9                   0.2887517892938467       -0.6365916187808915
6.0E9                    0.2262772496539979       -0.6607562867701554
