% Model:              three_layers reality at 0.1mm.mph
% Version:            COMSOL 5.6.0.280
% Date:               Feb 22 2022, 16:39
% Table:              表格 1 - 全局计算 1
% freq (Hz)              real(emw.S11) (1)        imag(emw.S11) (1)
300000000                0.590563739200934        -0.743032513480082
330000000                0.5225265998620329       -0.7913411468765267
360000000                0.45067301847598923      -0.8335190633098613
390000000                0.3755369560795881       -0.8692613254189849
420000000                0.29768041270027334      -0.8983098266997148
450000000                0.21768835412638127      -0.9204559064147392
480000000                0.13616368655922031      -0.9355424054692636
510000000                0.0537222376736894       -0.943465207155027
540000000                -0.029012267001563077    -0.9441742877740733
570000000                -0.11141322564508123     -0.9376742920980914
600000000                -0.19285616083404397     -0.9240246437619499
630000000                -0.27272367421522076     -0.9033391992368345
660000000                -0.3504103259360969      -0.8757854541000021
690000000                -0.42532740630435106     -0.8415833117930153
720000000                -0.4969075663271462      -0.8010034271170765
750000000                -0.5646092733164351      -0.7543651391222596
780000000                -0.6279210575114974      -0.7020340110605446
810000000                -0.6863655172169927      -0.6444189975651385
840000000                -0.7395030505216391      -0.5819692625766808
870000000                -0.7869352841491251      -0.5151706738632003
900000000                -0.8283081716598263      -0.44454200303953056
930000000                -0.8633147359777968      -0.37063086231828407
960000000                -0.8916974340087415      -0.29400941153650123
990000000                -0.9132501242309599      -0.21526987090600175
1020000000               -0.9278196214001758      -0.13501987682731695
1050000000               -0.9353068261344734      -0.05387771909191727
1080000000               -0.9356674206653537      0.02753250062104706
1110000000               -0.9289121259537769      0.10858574916436801
1140000000               -0.9151065190466187      0.18866094062077077
1170000000               -0.8943704134372645      0.2671457730462938
1200000000               -0.8668768089463887      0.3434414835764802
1230000000               -0.8328504213759615      0.4169674829678554
1260000000               -0.7925658056950681      0.4871658321497052
1290000000               -0.7463450900294759      0.5535055246730242
1320000000               -0.6945553408663185      0.615486541151391
1350000000               -0.6376055829353457      0.6726436438391041
1380000000               -0.575943499892485       0.7245498821280185
1410000000               -0.5100518444591272      0.7708197823376557
1440000000               -0.4404445888154608      0.8111121981724788
1470000000               -0.36766284774883196     0.8451328013860174
1500000000               -0.29227060876680583     0.8726361952410209
1530000000               -0.21485030445889014     0.8934276367893199
1560000000               -0.13599826312552282     0.9073643573514535
1590000000               -0.056320074474267304    0.9143564738542076
1620000000               0.023574092831651683     0.9143674871561359
1650000000               0.103074185035522        0.9074143667559756
1680000000               0.18157493224765064      0.8935672245241335
1710000000               0.2584804567659635       0.8729485832573627
1740000000               0.3332087861829006       0.8457322488587011
1770000000               0.4051962376173617       0.8121417978698932
1800000000               0.4739016411273731       0.7724486947517133
1830000000               0.5388103716617971       0.7269700559578038
1860000000               0.599438161028182        0.6760660800952863
1890000000               0.6553346630083748       0.6201371658284395
1920000000               0.7060867471037459       0.559620741045312
1950000000               0.7513214985895925       0.49498782861527374
1980000000               0.7907089048356707       0.42673937575048715
2010000000               0.8239642104918055       0.3554023752113896
2040000000               0.8508499266913909       0.28152580769797286
2070000000               0.8711774820574778       0.20567643562253576
2100000000               0.8848085060921911       0.12843447874017672
2130000000               0.8916557380651234       0.05038920202931461
2.16E9                   0.8916835567337096       -0.027865554261744974
2.19E9                   0.8849081276417586       -0.10573587379763172
2.22E9                   0.8713971646255395       -0.1826322646166355
2.25E9                   0.8512693003089485       -0.257974132443626
2.28E9                   0.8246930575344497       -0.331194193947682
2.31E9                   0.7918854136888023       -0.4017427866029077
2.34E9                   0.753109959889116        -0.4690920169540389
2.37E9                   0.7086746823987572       -0.5327396808987687
2.4E9                    0.6589294278325231       -0.5922129037615472
2.43E9                   0.6042631306162399       -0.6470714915825835
2.46E9                   0.5451008556793479       -0.6969110325877879
2.49E9                   0.4819006523277512       -0.7413657970450805
2.52E9                   0.4151501737925465       -0.7801114426107549
2.55E9                   0.345363025864406        -0.8128674772784026
2.58E9                   0.2730748516786036       -0.8393994079872732
2.61E9                   0.19883919909769363      -0.8595205169334567
2.64E9                   0.12322323157749651      -0.873093236622337
2.67E9                   0.04680333830390851      -0.8800301172190761
2.7E9                    -0.029839311284442973    -0.8802943899849685
2.73E9                   -0.1061232321237558      -0.8739001328068614
2.76E9                   -0.18147107481189925     -0.8609120431729462
2.79E9                   -0.25531403211959963     -0.8414448236325252
2.82E9                   -0.3270961693679339      -0.815662185604548
2.85E9                   -0.39627864678162483     -0.7837754792875653
2.88E9                   -0.46234380211257675     -0.7460419599236044
2.91E9                   -0.5247990620783385      -0.7027627035559307
2.94E9                   -0.5831806522684065      -0.6542801882983782
2.97E9                   -0.6370570763651392      -0.6009755600658612
3.0E9                    -0.6860323372866688      -0.5432656044467792
3.03E9                   -0.7297488748904633      -0.48159944899032664
3.06E9                   -0.7678901972276515      -0.4164550224607914
3.09E9                   -0.800183184794652       -0.34833529986059963
3.12E9                   -0.826400050164158       -0.27776436367737306
3.15E9                   -0.8463599382483921      -0.2052833134095823
3.18E9                   -0.8599301555456513      -0.13144605669562284
3.21E9                   -0.8670270200067915      -0.05681501602939587
3.24E9                   -0.8676163263009529      0.01804321430131605
3.27E9                   -0.8617134245145395      0.09256222628069777
3.3E9                    -0.8493829134896997      0.1661801366401201
3.33E9                   -0.8307379530306064      0.23834387160622128
3.36E9                   -0.8059392022060641      0.30851336422732356
3.39E9                   -0.7751933937648978      0.37616563177601786
3.42E9                   -0.7387515575372099      0.4407987012945143
3.45E9                   -0.6969069083154255      0.5019353529286071
3.48E9                   -0.6499924165058761      0.5591266517337105
3.51E9                   -0.5983780825380655      0.6119552403728451
3.54E9                   -0.542467938805243       0.6600383669648209
3.57E9                   -0.4826968055215737      0.7030306247876911
3.6E9                    -0.4195268294678128      0.7406263832636898
3.63E9                   -0.3534438365589688      0.7725618931123116
3.66E9                   -0.2849535306978583      0.7986170521957986
3.69E9                   -0.21457757214904555     0.8186168224176357
3.72E9                   -0.14284956885195774     0.8324322917891707
3.75E9                   -0.070311013752087       0.8399813793441111
3.78E9                   0.002492799420141445     0.8412291839721941
3.81E9                   0.07501685072172998      0.8361879815687004
3.84E9                   0.146720429369973        0.8249168779430293
3.87E9                   0.21707110299471177      0.8075211274486387
3.9E9                    0.2855485964789079       0.7841511287565499
3.93E9                   0.35164855894513636      0.7550011093743844
3.96E9                   0.41488619895542134      0.7203075097201923
3.99E9                   0.4747997681993399       0.6803470764875595
4.02E9                   0.5309538725821206       0.6354346748872977
4.05E9                   0.5829425879340558       0.5859208305146704
4.08E9                   0.6303923558798016       0.5321890146760317
4.11E9                   0.6729646354063441       0.4746526909312079
4.14E9                   0.7103582870296794       0.4137521450187124
4.17E9                   0.7423116694591688       0.34995112408970463
4.2E9                    0.7686044327046293       0.283733313670695
4.23E9                   0.7890589957410147       0.2155986821339455
4.26E9                   0.8035417009378133       0.14605972229850583
4.29E9                   0.8119636406263204       0.07563761912004739
4.32E9                   0.8142811535919844       0.0048583711301186175
4.35E9                   0.8104959908646276       -0.06575110761609311
4.38E9                   0.8006551513524202       -0.13566687883494324
4.41E9                   0.7848503890538944       -0.20437183839095027
4.44E9                   0.7632173950467721       -0.27135951515750983
4.47E9                   0.7359346593960485       -0.33613778344964607
4.5E9                    0.7032220204950825       -0.3982324618691968
4.53E9                   0.6653389120017317       -0.45719077167411487
4.56E9                   0.622582320346745        -0.512584628420217
4.59E9                   0.5752844685406296       -0.5640137418914917
4.62E9                   0.5238102445863587       -0.6111085010664328
4.65E9                   0.4685543949922824       -0.6535326230637217
4.68E9                   0.4099385055587808       -0.6909855475038865
4.71E9                   0.34840779255382587      -0.7232045603086863
4.74E9                   0.2844277278728411       -0.7499666331132278
4.77E9                   0.21848052187766812      -0.7710899661916333
4.8E9                    0.1510614880950273       -0.7864352237857002
4.83E9                   0.08267531488113189      -0.7959064516338974
4.86E9                   0.013832270962832995     -0.7994516675934076
4.89E9                   -0.05495562618337111     -0.7970631182423527
4.92E9                   -0.12317844810837891     -0.78877719729467
4.95E9                   -0.19033216696771582     -0.7746740255567524
4.98E9                   -0.2559224083319663      -0.7548766965209158
5.01E9                   -0.31946811345410336     -0.7295501961471341
5.04E9                   -0.3805050813221743      -0.6989000093791594
5.07E9                   -0.4385893637601214      -0.6631704290902644
5.1E9                    -0.4933004901880206      -0.6226425850947548
5.13E9                   -0.5442445019333971      -0.5776322114255014
5.16E9                   -0.5910567782219512      -0.5284871695939113
5.19E9                   -0.6334046368287558      -0.4755847446748811
5.22E9                   -0.6709896916325477      -0.4193287311252002
5.25E9                   -0.7035499481791971      -0.36014632694749615
5.28E9                   -0.7308616179909802      -0.29848485858395435
5.31E9                   -0.7527406343017083      -0.23480836355427925
5.34E9                   -0.7690438563256745      -0.16959406169734825
5.37E9                   -0.7796699550665417      -0.10332874746611423
5.4E9                    -0.7845599793261169      -0.036505134689833844
5.43E9                   -0.7836976045627255      0.030381817760349945
5.46E9                   -0.7771090689668319      0.09683857414042324
5.49E9                   -0.7648628011769351      0.16237666097660164
5.52E9                   -0.7470687434572523      0.22651625498697087
5.55E9                   -0.7238773738736365      0.2887896971797041
5.58E9                   -0.6954784316695997      0.34874490887512116
5.61E9                   -0.6620993518788225      0.40594868383913196
5.64E9                   -0.6240034182187271      0.45998982918608633
5.67E9                   -0.5814876474660735      0.5104821270534704
5.7E9                    -0.5348804234317982      0.5570670897826745
5.73E9                   -0.48453890380758624     0.5994164839869605
5.76E9                   -0.4308462272597393      0.637234603644063
5.79E9                   -0.37420854985141494     0.670260278589302
5.82E9                   -0.315051938807688       0.698268610508885
5.85E9                   -0.2538191483544834      0.721072432302002
5.88E9                   -0.19096629904881476     0.7385234874315754
5.91E9                   -0.1269594803323802      0.7505133247245883
5.94E9                   -0.06227129690080222     0.7569739026102915
5.97E9                   0.002622618199886162     0.7578778967463878
6.0E9                    0.0672470980267125       0.7532387066976967
