% Model:              three_layers reality at 0.1mm.mph
% Version:            COMSOL 5.6.0.280
% Date:               Mar 2 2022, 21:35
% Table:              表格 1 - 全局计算 1
% freq (Hz)              real(emw.S11) (1)        imag(emw.S11) (1)
300000000                0.6318208263997885       -0.7595282664002236
330000000                0.5631937320621699       -0.8121644343893994
360000000                0.4902412298657778       -0.8586159537077616
390000000                0.4135191140870994       -0.8985289524482325
420000000                0.3336120347961741       -0.931599329619332
450000000                0.2511290639594993       -0.9575751089135814
480000000                0.1666990668166987       -0.9762584012950143
510000000                0.08096591383796437      -0.9875069591069814
540000000                -0.005416432399469784    -0.991235308322081
570000000                -0.0917889170062459      -0.9874154479664295
600000000                -0.17749244301975706     -0.9760771094439913
630000000                -0.261872931579061       -0.9573075714884651
660000000                -0.3442863536491756      -0.9312510302010756
690000000                -0.4241036938458268      -0.8981075269057555
720000000                -0.5007158064729632      -0.8581314404259281
750000000                -0.5735381254694291      -0.8116295537089023
780000000                -0.6420151899745276      -0.7589587085202298
810000000                -0.705624948852998       -0.7005230653260411
840000000                -0.7638828089339329      -0.6367709889336496
870000000                -0.816345393508049       -0.5681915839006659
900000000                -0.8626139802287656      -0.49531090644725123
930000000                -0.9023375895589082      -0.41868788309526217
960000000                -0.9352156983005124      -0.3389099682800142
990000000                -0.9610005553899221      -0.256588576227885
1020000000               -0.9794990809218277      -0.17235432370100887
1050000000               -0.9905743325648072      -0.08685212250916807
1080000000               -0.9941465274043777      -7.361620839957633E-4
1110000000               -0.9901936111872477      0.08533517735083801
1140000000               -0.9787513706876135      0.17070443889105613
1170000000               -0.9599130890256742      0.2547201888548188
1200000000               -0.933828747656953       0.3367420607881598
1230000000               -0.9007037827052419      0.41614570258263345
1260000000               -0.8607974070459306      0.4923275869189765
1290000000               -0.8144205134008576      0.5647096461697302
1320000000               -0.7619331768959388      0.6327436953577078
1350000000               -0.7037417791358452      0.6959156080645164
1380000000               -0.6402957788026068      0.7537492129451131
1410000000               -0.5720841562539242      0.8058098813393901
1440000000               -0.4996315625452128      0.8517077787754768
1470000000               -0.423494205209808       0.891100756616975
1500000000               -0.34425550473717514     0.9236968633610027
1530000000               -0.26252155766542934     0.9492564581117217
1560000000               -0.178916442922805       0.9675939124721403
1590000000               -0.09407740914903365     0.9785788904000127
1620000000               -0.008649980901042298    0.9821371991396941
1650000000               0.07671697785442166      0.9782512076977746
1680000000               0.16137620494808724      0.9669598328104645
1710000000               0.24468694842123126      0.9483580956145188
1740000000               0.32601980506127326      0.9225962554816723
1770000000               0.40476145351615433      0.8898785304774082
1800000000               0.4803192470218294       0.8504614169671756
1830000000               0.5521256328701248       0.804651623522227
1860000000               0.6196423669656532       0.7528036369860625
1890000000               0.6823644939039379       0.6953169408837715
1920000000               0.7398240648041661       0.632632908695931
1950000000               0.7915935674352067       0.5652313964378335
1980000000               0.8372890453298432       0.4936270608574145
2010000000               0.8765728849061454       0.41836543125504166
2040000000               0.9091562521199038       0.34001876430043765
2070000000               0.9348011626483501       0.2591817124924889
2100000000               0.9533221721787779       0.1764668379739745
2130000000               0.9645876760192899       0.0925000042229095
2.16E9                   0.9685208099031801       0.007915678833307882
2.19E9                   0.9650999465704437       -0.07664781899454706
2.22E9                   0.9543587854362784       -0.16055309229417086
2.25E9                   0.936386035377851        -0.24316842779588313
2.28E9                   0.9113246934201382       -0.3238725110394063
2.31E9                   0.8793709247043471       -0.40205906226577137
2.34E9                   0.8407725516894928       -0.47714136044336225
2.37E9                   0.7958271628337301       -0.548556623981468
2.4E9                    0.7448798529118665       -0.6157702177814653
2.43E9                   0.6883206084713756       -0.678279657302966
2.46E9                   0.626581353161443        -0.7356183803487969
2.49E9                   0.5601326682537459       -0.7873592569172297
2.52E9                   0.48948020652625496      -0.8331178042838323
2.55E9                   0.41516082307851665      -0.8725550715580722
2.58E9                   0.3377384578886254       -0.9053801567154173
2.61E9                   0.2577998190314473       -0.9313523262401354
2.64E9                   0.17594992515874638      -0.9502827257993254
2.67E9                   0.092807560336305        -0.9620356943275535
2.7E9                    0.009000671361810575     -0.9665297079015653
2.73E9                   -0.07483828863110098     -0.9637379708665545
2.76E9                   -0.15807707442254132     -0.9536886455453524
2.79E9                   -0.2400884096753445      -0.936464690151634
2.82E9                   -0.320254757437593       -0.9122032729210257
2.85E9                   -0.39797304576579307     -0.8810947463107497
2.88E9                   -0.4726592915894178      -0.8433811847812628
2.91E9                   -0.5437530728005324      -0.7993545034642913
2.94E9                   -0.6107218079835164      -0.7493541809747296
2.97E9                   -0.6730648097762586      -0.6937646112010245
3.0E9                    -0.730317082063539       -0.6330121089748887
3.03E9                   -0.7820528334050375      -0.5675615950879408
3.06E9                   -0.8278886809183004      -0.4979129872792116
3.09E9                   -0.867486520507015       -0.4245973257471654
3.12E9                   -0.9005560415605824      -0.3481726637030087
3.15E9                   -0.9268568667520016      -0.2692197555965586
3.18E9                   -0.9462003005525346      -0.1883375773288456
3.21E9                   -0.9584506732176927      -0.10613871439406515
3.24E9                   -0.9635262704475462      -0.02324465488558503
3.27E9                   -0.9613998423943987      0.059718974775264534
3.3E9                    -0.9520986892943502      0.14212719338175575
3.33E9                   -0.9357043245370242      0.2233604295067568
3.36E9                   -0.9123517195441784      0.30280922934720145
3.39E9                   -0.8822281382591467      0.3798788707967758
3.42E9                   -0.8455715724507225      0.45399384755405187
3.45E9                   -0.8026687921826169      0.5246021886677367
3.48E9                   -0.7538530289506146      0.5911795802541656
3.51E9                   -0.6995013118129721      0.6532332582205619
3.54E9                   -0.640031479535724       0.7103056429004623
3.57E9                   -0.575898894148118       0.761977688965379
3.6E9                    -0.5075928836300804      0.8078719264347051
3.63E9                   -0.4356329430685591      0.8476551716543451
3.66E9                   -0.3605647254862526      0.8810408897760843
3.69E9                   -0.2829558544957319      0.9077911935387697
3.72E9                   -0.2033915919282146      0.9277184660941877
3.75E9                   -0.12247039410898566     0.9406865986736421
3.78E9                   -0.04079939064503098     0.946611836826104
3.81E9                   0.04101018025818668      0.9454632317253587
3.84E9                   0.12234754612986727      0.9372626957386155
3.87E9                   0.20260695034811393      0.9220846640616926
3.9E9                    0.28119214449163865      0.9000553669084441
3.93E9                   0.3575207895343773       0.8713517195634006
3.96E9                   0.4310287330327448       0.8361998406452399
3.99E9                   0.5011741303279245       0.7948732121795629
4.02E9                   0.5674413792848814       0.7476904984170237
4.05E9                   0.6293448402921158       0.6950130435160761
4.08E9                   0.6864323162054436       0.6372420708319697
4.11E9                   0.7382882702344582       0.5748156083503589
4.14E9                   0.7845367631745074       0.5082051654233375
4.17E9                   0.8248440938900086       0.4379121860716372
4.2E9                    0.8589211289600982       0.36446430351144987
4.23E9                   0.8865253081650697       0.28841142089538596
4.26E9                   0.9074623134579298       0.21032164383776847
4.29E9                   0.9215873901906658       0.13077709195939494
4.32E9                   0.9288063114853501       0.050369618204948036
4.35E9                   0.9290759794005979       -0.030303534187185996
4.38E9                   0.9224046594896266       -0.1106441069310767
4.41E9                   0.9088518479204049       -0.19005720441843954
4.44E9                   0.8885277722645206       -0.2679556447991351
4.47E9                   0.8615925285231903       -0.3437642556040351
4.5E9                    0.8282548584035205       -0.41692408487330823
4.53E9                   0.7887705727007082       -0.4868964981882285
4.56E9                   0.7434406291610973       -0.5531671313830806
4.59E9                   0.6926088762555115       -0.6152496685993529
4.62E9                   0.6366594777454417       -0.6726894157810732
4.65E9                   0.576014036426451        -0.7250666409566553
4.68E9                   0.5111284385484318       -0.7719996547472755
4.71E9                   0.44248944336237805      -0.8131476069122983
4.74E9                   0.3706110441420316       -0.8482129778964842
4.77E9                   0.29603062871935587      -0.876943747189441
4.8E9                    0.21930496816420553      -0.8991352233304021
4.83E9                   0.14100606296861837      -0.9146315227231876
4.86E9                   0.06171687630957408      -0.9233266865963747
4.89E9                   -0.01797301525784256     -0.9251654272074792
4.92E9                   -0.09747182238903829     -0.9201434963164719
4.95E9                   -0.17618996245166213     -0.9083076712049574
4.98E9                   -0.2535444644377039      -0.8897553562198187
5.01E9                   -0.3289633250772639      -0.8646338009631841
5.04E9                   -0.40188978158861843     -0.8331389396764172
5.07E9                   -0.4717864667401621      -0.7955138599331631
5.1E9                    -0.5381394126019131      -0.7520469123711303
5.13E9                   -0.6004618706225969      -0.7030694767672963
5.16E9                   -0.6582979175044694      -0.6489534032038764
5.19E9                   -0.711225818958237       -0.5901081499608037
5.22E9                   -0.7588611260710654      -0.5269776423267271
5.25E9                   -0.8008594822854072      -0.4600368778398039
5.28E9                   -0.8369191213800401      -0.38978830453878655
5.31E9                   -0.8667830389510943      -0.31675799934463644
5.34E9                   -0.8902408212955539      -0.24149167472890062
5.37E9                   -0.9071301170790957      -0.1645505433733818
5.4E9                    -0.9173377391298747      -0.08650707281375007
5.43E9                   -0.9208003866912904      -0.007940664067548783
5.46E9                   -0.9175049821938194      0.0705667098247068
5.49E9                   -0.907488620949382       0.14843486882923967
5.52E9                   -0.8908381365719583      0.2250897579039337
5.55E9                   -0.8676892892228141      0.29996771035221154
5.58E9                   -0.8382255876980342      0.3725196087194565
5.61E9                   -0.8026767597908919      0.4422149117434909
5.64E9                   -0.761316887994961       0.5085455188312359
5.67E9                   -0.7144622291258735      0.5710294467747209
5.7E9                    -0.662468736865606       0.6292142960889882
5.73E9                   -0.6057293058771428      0.6826804860119076
5.76E9                   -0.5446707561066382      0.7310442373132843
5.79E9                   -0.4797505772198144      0.7739602812877457
5.82E9                   -0.41145345647689435     0.8111242728977701
5.85E9                   -0.34028761786971934     0.8422748876195153
5.88E9                   -0.2667810044546394      0.8671955855773597
5.91E9                   -0.19147733797505906     0.8857160322169652
5.94E9                   -0.11493208945780431     0.8977131704867034
5.97E9                   -0.03770839228493177     0.9031119438329658
6.0E9                    0.03962707333087661      0.9018856718139889
