% Model:              three_layers reality at 0.1mm.mph
% Version:            COMSOL 5.6.0.280
% Date:               Mar 3 2022, 10:04
% Table:              表格 1 - 全局计算 1
% freq (Hz)              real(emw.S11) (1)        imag(emw.S11) (1)
300000000                0.6015673376232709       -0.730048343849508
330000000                0.5358530847918218       -0.7788445107275463
360000000                0.46629330115130596      -0.8218020443472833
390000000                0.39339381888269964      -0.858615472560328
420000000                0.3176870200759352       -0.8890236147049289
450000000                0.239727360565848        -0.9128117715854341
480000000                0.16008690219280128      -0.9298135171353352
510000000                0.0793508197342014       -0.9399120931624844
540000000                -0.001887123891545528    -0.9430414063008659
570000000                -0.08302912465580636     -0.9391866257441299
600000000                -0.16347788784018746     -0.9283843813423154
630000000                -0.24264115784219734     -0.9107225630570149
660000000                -0.31993620044704535     -0.8863397244999149
690000000                -0.3947942066009715      -0.855424096046243
720000000                -0.46666458823275747     -0.818212214997357
750000000                -0.5350191344391124      -0.7749871833573055
780000000                -0.599355997310826       -0.7260765663404318
810000000                -0.6592034771034853      -0.6718499476417538
840000000                -0.714123578142615       -0.6127161596642068
870000000                -0.7637153069879299      -0.5491202106597859
900000000                -0.8076176877659353      -0.48153993189747324
930000000                -0.8455124704617364      -0.4104823712545782
960000000                -0.8771265107248027      -0.33647996158518545
990000000                -0.9022338025047278      -0.26008649364599007
1020000000               -0.9206571470885706      -0.18187292605550087
1050000000               -0.9322694457159637      -0.10242306500042382
1080000000               -0.9369946055268491      -0.022329148351194497
1110000000               -0.9348080521065377      0.057812630818631396
1140000000               -0.92573684503176        0.13740662536175074
1170000000               -0.9098593962443282      0.21586222440720385
1200000000               -0.887304794343112       0.29259829696990275
1230000000               -0.8582517410985425      0.36704755417228463
1260000000               -0.8229271099522939      0.4386607950735745
1290000000               -0.7816041389759146      0.5069110037235354
1320000000               -0.7346002740825981      0.5712972652386107
1350000000               -0.6822746809852804      0.6313484708755334
1380000000               -0.625025446649798       0.6866267844453143
1410000000               -0.5632864941414685      0.7367308435235123
1440000000               -0.4975242358673585      0.7812986726125865
1470000000               -0.4282339931633186      0.8200102867403308
1500000000               -0.3559362107814623      0.8525899676366093
1530000000               -0.2811724971685674      0.8788081966779269
1560000000               -0.20450152146552478     0.8984832322878922
1590000000               -0.126494799769398       0.9114823219487523
1620000000               -0.047732403264454965    0.9177225421763318
1650000000               0.031201378950729188     0.9171712627153124
1680000000               0.10972238941121137      0.9098462340578566
1710000000               0.1872509317070918       0.8958153003133822
1740000000               0.2632160477526426       0.875195742170294
1770000000               0.3370597115721415       0.8481532574747546
1800000000               0.4082409098034518       0.8149005892837837
1830000000               0.47623957927358396      0.775695814007967
1860000000               0.540560374372399        0.7308403042819984
1890000000               0.6007362380815249       0.6806763833617405
1920000000               0.6563317518980885       0.6255846900744646
1950000000               0.7069462422987205       0.5659812747489069
1980000000               0.75221662265534         0.5023144486942556
2010000000               0.7918199521580385       0.4350614106807781
2040000000               0.825475694750497        0.3647246758245579
2070000000               0.8529476637687193       0.2918283328714745
2100000000               0.8740456398990759       0.21691415707848005
2130000000               0.8886266523978755       0.14053760676450297
2.16E9                   0.8965959159074167       0.063263731867737
2.19E9                   0.8979074174130077       -0.014336976364279656
2.22E9                   0.8925641503261513       -0.09169276538882472
2.25E9                   0.880617995000279        -0.16823480185580966
2.28E9                   0.862169247359391        -0.24340132336525594
2.31E9                   0.8373657995256644       -0.31664173307981486
2.34E9                   0.8064019787107981       -0.3874206085065106
2.37E9                   0.7695170522844134       -0.4552215979148129
2.4E9                    0.7269934090837747       -0.5195511771897807
2.43E9                   0.6791544278334023       -0.579942242181635
2.46E9                   0.6263620449288233       -0.6359575108731516
2.49E9                   0.5690140343636321       -0.6871927098456061
2.52E9                   0.5075410148118806       -0.7332795171370812
2.55E9                   0.44240320328657357      -0.7738882312416369
2.58E9                   0.374086943338094        -0.8087301351505012
2.61E9                   0.3031010468955579       -0.8375595294969256
2.64E9                   0.22997299678306185      -0.860175422693931
2.67E9                   0.15524505364517527      -0.8764228844603402
2.7E9                    0.07947029455382976      -0.8861940807897426
2.73E9                   0.003208590003786505     -0.8894290032889288
2.76E9                   -0.07297748099916959     -0.8861158867327135
2.79E9                   -0.1485267681915497      -0.8762912917290262
2.82E9                   -0.2228837103835428      -0.860039826706395
2.85E9                   -0.29550247565859095     -0.8374934944651651
2.88E9                   -0.36585103499606836     -0.8088306635257846
2.91E9                   -0.4334151273959898      -0.7742746756988743
2.94E9                   -0.49770208115809045     -0.7340921069010775
2.97E9                   -0.5582444616105605      -0.6885906999477865
3.0E9                    -0.6146035185067591      -0.6381169887691153
3.03E9                   -0.666372408745455       -0.5830536338803043
3.06E9                   -0.7131791710756069      -0.5238164902933821
3.09E9                   -0.7546894310871017      -0.4608514305358991
3.12E9                   -0.7906088163774924      -0.3946309473053171
3.15E9                   -0.8206850638989697      -0.3256505619115362
3.18E9                   -0.8447098035410543      -0.2544250667543359
3.21E9                   -0.8625200049758966      -0.18148463070827192
3.24E9                   -0.8739990770059652      -0.10737079844883197
3.27E9                   -0.8790776119522784      -0.032632414637919945
3.3E9                    -0.8777337702380223      0.04217849477418267
3.33E9                   -0.8699933034539383      0.11651085232012842
3.36E9                   -0.8559292170394383      0.18981863735161625
3.39E9                   -0.8356610766939339      0.26156494147628484
3.42E9                   -0.8093539654885746      0.3312259396412549
3.45E9                   -0.7772171014004826      0.39829474669178183
3.48E9                   -0.7395021277814481      0.46228512995184706
3.51E9                   -0.6965010916764796      0.5227350502017235
3.54E9                   -0.6485441274786251      0.5792100045755831
3.57E9                   -0.5959968655350968      0.6313061470150139
3.6E9                    -0.539257587437817       0.6786531637869351
3.63E9                   -0.47875415144241523     0.7209168839053894
3.66E9                   -0.4149407131529855      0.7578016065040234
3.69E9                   -0.3482942677407662      0.7890521298384039
3.72E9                   -0.27931104117191297     0.8144554689670225
3.75E9                   -0.2085027582829124      0.8338422519072424
3.78E9                   -0.13639281646454135     0.847087786298935
3.81E9                   -0.0635123936419685      0.8541127912212398
3.84E9                   0.009603480536289767     0.8548837910588443
3.87E9                   0.08241986108423448      0.849413170601335
3.9E9                    0.1544058026812623       0.8377588929805784
3.93E9                   0.22503822430656373      0.8200238844702966
3.96E9                   0.2938056948039341       0.7963550928106375
3.99E9                   0.36021211130265646      0.7669422285081525
4.02E9                   0.4237802435116093       0.7320162014241676
4.05E9                   0.4840551186005666       0.6918472676664815
4.08E9                   0.5406072234411238       0.6467429042512407
4.11E9                   0.5930355038023084       0.5970454305982836
4.14E9                   0.6409701425501364       0.5431293969328806
4.17E9                   0.6840751011540356       0.4853987599453346
4.2E9                    0.7220504104250843       0.42428386610472657
4.23E9                   0.7546341974139428       0.36023826328156455
4.26E9                   0.7816044362913939       0.2937353620084604
4.29E9                   0.8027804120607162       0.2252649691564264
4.32E9                   0.8180238878098365       0.15532971796321782
4.35E9                   0.8272399684555332       0.08444141940121931
4.38E9                   0.8303776563806313       0.013117360317595778
4.41E9                   0.8274300966608451       -0.05812342666331519
4.44E9                   0.8184345112551367       -0.1287638966635973
4.47E9                   0.8034718228988595       -0.19829270525024892
4.5E9                    0.7826659706470821       -0.2662078757696597
4.53E9                   0.7561829204542548       -0.33202039653181964
4.56E9                   0.7242293761420875       -0.3952577223913184
4.59E9                   0.6870511984043568       -0.45546715531293896
4.62E9                   0.644931542263689        -0.5122190784412044
4.65E9                   0.5981887261724831       -0.5651100191387369
4.68E9                   0.5471738485818473       -0.6137655178313273
4.71E9                   0.49226817025652764      -0.6578427812529738
4.74E9                   0.4338802823823704       -0.6970331010240134
4.77E9                   0.37244308199478626      -0.7310640207225867
4.8E9                    0.3084105771321559       -0.7597012368735392
4.83E9                   0.24225454448407932      -0.7827502213644977
4.86E9                   0.1744610630948266       -0.8000575542456805
4.89E9                   0.10552694794130418      -0.811511957503565
4.92E9                   0.03595610835841114      -0.8170450217150096
4.95E9                   -0.03374414296146231     -0.8166316192571874
4.98E9                   -0.1030668034010688      -0.810289999739652
5.01E9                   -0.17150888865453062     -0.798081565754369
5.04E9                   -0.23857510761820216     -0.7801103296491493
5.07E9                   -0.30378147548620804     -0.7565220548579253
5.1E9                    -0.36665883704259317     -0.7275030881844897
5.13E9                   -0.42675627277536354     -0.6932788923091735
5.16E9                   -0.48364436145601686     -0.6541122906414931
5.19E9                   -0.5369182745894966      -0.6103014391642451
5.22E9                   -0.5862006800959031      -0.5621775420212688
5.25E9                   -0.6311444345959084      -0.5101023292280873
5.28E9                   -0.671435045788665       -0.4544653157347048
5.31E9                   -0.7067928876372593      -0.39568086211925135
5.34E9                   -0.7369751524295127      -0.334185057901369
5.37E9                   -0.7617775245513964      -0.2704324502777727
5.4E9                    -0.7810355624791538      -0.2048926427110235
5.43E9                   -0.7946257774619601      -0.13804679007614445
5.46E9                   -0.8024664003148265      -0.07038401854829061
5.49E9                   -0.8045178309382415      -0.0023977996841265687
5.52E9                   -0.8007827687044551      0.06541769155393563
5.55E9                   -0.7913060252440964      0.13257120535419634
5.58E9                   -0.7761740244190611      0.1985780033737557
5.61E9                   -0.7555139972036717      0.26296337572586465
5.64E9                   -0.7294928816223372      0.3252660630443045
5.67E9                   -0.698315939592715       0.38504156044473015
5.7E9                    -0.6622251033565236      0.44186528208287995
5.73E9                   -0.621497064488544       0.49533556619373575
5.76E9                   -0.5764411187524384      0.5450765008662167
5.79E9                   -0.5273967812831465      0.5907405502849262
5.82E9                   -0.47473118924936275     0.6320109607732969
5.85E9                   -0.4188363126768221      0.6686039270582089
5.88E9                   -0.3601259977123219      0.7002705018294255
5.91E9                   -0.2990328687246983      0.7267982358986539
5.94E9                   -0.23600511609565278     0.7480125405700743
5.97E9                   -0.17150319561264826     0.7637777674388321
6.0E9                    -0.10599646375140531     0.7739980032335938
