% Model:              three_layers reality at 0.1mm.mph
% Version:            COMSOL 5.6.0.280
% Date:               Mar 1 2022, 21:29
% Table:              表格 1 - 全局计算 1
% freq (Hz)              real(emw.S11) (1)        imag(emw.S11) (1)
300000000                0.4079506299526712       -0.777604198247399
330000000                0.3236578786015811       -0.8135329400339213
360000000                0.2364337058463212       -0.8405510117734409
390000000                0.1471861278483127       -0.8584185996533429
420000000                0.05684835897338356      -0.8669904902323511
450000000                -0.033632816133763836    -0.8662183024289072
480000000                -0.12330832652408114     -0.8561514454809434
510000000                -0.21123780339357065     -0.8369368534985807
540000000                -0.2965002560030042      -0.8088175419687009
570000000                -0.37820438027745884     -0.7721300319751401
600000000                -0.45549842736745694     -0.727300692148078
630000000                -0.5275795489718353      -0.6748410550651126
660000000                -0.5937025338533224      -0.6153421726127523
690000000                -0.6531878511734727      -0.5494680829889951
720000000                -0.7054289200729553      -0.4779484706838484
750000000                -0.7498985317953515      -0.40157060851333626
780000000                -0.7861543587849394      -0.3211706780676198
810000000                -0.8138434946823798      -0.23762457152084357
840000000                -0.832705980007896       -0.1518382827445992
870000000                -0.8425772796438932      -0.06473800013291602
900000000                -0.8433896904921382      0.022739984172574314
930000000                -0.8351726699659704      0.10965943214889227
960000000                -0.8180520886572723      0.1950942687753346
990000000                -0.7922484229954847      0.2781385271599434
1020000000               -0.758073915992519       0.3579160181843896
1050000000               -0.7159287459759907      0.4335896171720725
1080000000               -0.6662962544432429      0.5043700656799843
1110000000               -0.6097372945745146      0.5695241933714706
1140000000               -0.5468837714906133      0.6283824727291146
1170000000               -0.4784314538723674      0.6803458282041831
1200000000               -0.40513214388600965     0.7248916311126614
1230000000               -0.3277852985426054      0.7615788218419051
1260000000               -0.24722920068292922     0.7900521116917261
1290000000               -0.1643317811767597      0.8100452279759202
1320000000               -0.07998119656620269     0.821383177186032
1350000000               0.004923732720858354     0.8239835125105106
1380000000               0.08948311855618539      0.8178566032191372
1410000000               0.17280553201428328      0.8031049144501172
1440000000               0.25401735984369117      0.7799213165779624
1470000000               0.3322718928451501       0.7485864535180391
1500000000               0.40675805317779584      0.7094652088649891
1530000000               0.4767086728097235       0.6630023177416454
1560000000               0.5414082418407887       0.6097171803130566
1590000000               0.600200052020827        0.5501979404533195
1620000000               0.6524926686564698       0.48509489941005346
1650000000               0.6977656717607815       0.41511334024242336
1680000000               0.7355746161094129       0.34100584334339856
1710000000               0.7655551683589246       0.26356417750550437
1740000000               0.7874263886627315       0.18361085374194064
1770000000               0.8009931333278733       0.10199043126732898
1800000000               0.8061475645290778       0.019560666087607988
1830000000               0.8028697625690946       -0.06281640734214859
1860000000               0.7912274456657677       -0.14428337180915787
1890000000               0.771374811765503        -0.223996213002666
1920000000               0.7435505262127265       -0.3011329113274103
1950000000               0.7080748881316087       -0.37490176117562113
1980000000               0.6653462166714825       -0.4445493462113877
2010000000               0.61583650514179         -0.5093681089379223
2040000000               0.5600863950585632       -0.5687034657161357
2070000000               0.49869952097053044      -0.6219604343023308
2100000000               0.43233626646830425      -0.6686097592877686
2130000000               0.3617069466576583       -0.7081935369565131
2.16E9                   0.2875643860651444       -0.7403303451720326
2.19E9                   0.2106957923250505       -0.7647198544743822
2.22E9                   0.131913749896661        -0.7811468004463393
2.25E9                   0.05204612973134531      -0.7894839985580494
2.28E9                   -0.028075156353270538    -0.7896937867524629
2.31E9                   -0.10762618701188274     -0.7818270196639485
2.34E9                   -0.18580270362696594     -0.766018842045231
2.37E9                   -0.2618295314240579      -0.7424813337633913
2.4E9                    -0.33496596494778585     -0.7114946966692659
2.43E9                   -0.4045069392156167      -0.6733999311446583
2.46E9                   -0.46978223303284283     -0.6285954612532356
2.49E9                   -0.5301572059133074      -0.5775377150602464
2.52E9                   -0.5850373704210446      -0.5207431124825302
2.55E9                   -0.6338765092998782      -0.4587883268527982
2.58E9                   -0.6761862358053516      -0.39230711659957274
2.61E9                   -0.711544813053077       -0.32198387841521453
2.64E9                   -0.7396040177831396      -0.24854507685718966
2.67E9                   -0.760093821630118       -0.17274974878461927
2.7E9                    -0.7728251916686754      -0.09537987453708663
2.73E9                   -0.7776914300702681      -0.01723099177213268
2.76E9                   -0.7746683913107533      0.06089683143926882
2.79E9                   -0.7638137921010422      0.13820765991311756
2.82E9                   -0.7452657320919033      0.21391801171993663
2.85E9                   -0.7192404852741546      0.2872648441831787
2.88E9                   -0.6860295945751556      0.3575131924862374
2.91E9                   -0.6459962938099896      0.42396342918618074
2.94E9                   -0.5995712830924659      0.48595809995002803
2.97E9                   -0.5472478904507566      0.5428882839592947
3.0E9                    -0.4895766607613694      0.5941994251665067
3.03E9                   -0.42715942165501436     0.639396581924054
3.06E9                   -0.36064288381341314     0.6780490466343345
3.09E9                   -0.2907118398736321      0.7097942930282425
3.12E9                   -0.21808203128249604     0.7343412163358111
3.15E9                   -0.14349275594683883     0.751472640072614
3.18E9                   -0.06769929093385407     0.7610470720619689
3.21E9                   0.008534796110059695     0.762999700766483
3.24E9                   0.08444537545719905      0.7573426302193553
3.27E9                   0.15927545566989476      0.7441643571255561
3.3E9                    0.2322827910061779       0.723628496688452
3.33E9                   0.3027473328114157       0.6959717646345078
3.36E9                   0.36997846106910776      0.6615012226617799
3.39E9                   0.4333219280789651       0.6205907946427256
3.42E9                   0.4921664386100245       0.5736770633828908
3.45E9                   0.5459497806731888       0.5212543646907482
3.48E9                   0.5941644104035477       0.46386920892144484
3.51E9                   0.6363623866240528       0.40211408103554264
3.54E9                   0.6721595496996816       0.33662069793247107
3.57E9                   0.7012388492906123       0.26805283334106617
3.6E9                    0.7233527489448971       0.19709885032612218
3.63E9                   0.7383246710721633       0.12446410280409202
3.66E9                   0.7460494887326622       0.05086337486364965
3.69E9                   0.7464931135102462       -0.022986481458314334
3.72E9                   0.739691265179986        -0.09637356977857081
3.75E9                   0.7257475369785222       -0.16859752179671816
3.78E9                   0.7048308922061072       -0.23897553773966
3.81E9                   0.6771727458485434       -0.3068478519237977
3.84E9                   0.6430637951935598       -0.37158263027251687
3.87E9                   0.6028507546006531       -0.43258036880211925
3.9E9                    0.556933108359189        -0.48927792626335265
3.93E9                   0.505759917710137        -0.5411523679818606
3.96E9                   0.44982661739891744      -0.5877247969604783
3.99E9                   0.3896716436421921       -0.6285642909187861
4.02E9                   0.3258726829718535       -0.6632919607030822
4.05E9                   0.25904234105152624      -0.6915850271077377
4.08E9                   0.18982309989025642      -0.7131807170426248
4.11E9                   0.11888153781747911      -0.7278797336580359
4.14E9                   0.04690189597790049      -0.7355490669836818
4.17E9                   -0.025420841187755984    -0.7361239709585865
4.2E9                    -0.09738814254995419     -0.7296090167789938
4.23E9                   -0.1683051978890987      -0.7160782163123968
4.26E9                   -0.23748808717208655     -0.695674272721726
4.29E9                   -0.30427073552487366     -0.6686070476843549
4.32E9                   -0.3680115893784532      -0.6351513355168527
4.35E9                   -0.428099984129082       -0.5956440132537595
4.38E9                   -0.4839621858062051      -0.550480606430617
4.41E9                   -0.5350670811167468      -0.5001112866695597
4.44E9                   -0.5809314705435258      -0.44503630782410286
4.47E9                   -0.6211248985284585      -0.3858008940712916
4.5E9                    -0.655273941129101       -0.32298961230578904
4.53E9                   -0.6830658690847073      -0.25722028641247835
4.56E9                   -0.7042516136312443      -0.18913753641279496
4.59E9                   -0.7186479822468086      -0.11940604635803687
4.62E9                   -0.7261390993340965      -0.04870367709448061
4.65E9                   -0.7266770786858674      0.022285459774634434
4.68E9                   -0.7202819643174032      0.09287786430211857
4.71E9                   -0.707040995988362       0.16239737096515516
4.74E9                   -0.687107258499825       0.23018168793325608
4.77E9                   -0.6606977577412396      0.29558873548909026
4.8E9                    -0.6280909377742323      0.3580027755528402
4.83E9                   -0.5896236252595178      0.4168403110698141
4.86E9                   -0.5456873747377934      0.47155570263114693
4.89E9                   -0.4967241992188107      0.5216464131269275
4.92E9                   -0.4432217040782008      0.5666577644347098
4.95E9                   -0.38570768902049885     0.6061870841663075
4.98E9                   -0.3247443300260514      0.6398871389222942
5.01E9                   -0.2609220889080545      0.6674687904019412
5.04E9                   -0.1948535134535213      0.6887028647883742
5.07E9                   -0.1271670806322714      0.7034212838137114
5.1E9                    -0.058501197827108525    0.7115175548703567
5.13E9                   0.010501582189185933     0.7129467430770909
5.16E9                   0.07920014299623973      0.7077250383481773
5.19E9                   0.1469602439325474       0.6959289833115062
5.22E9                   0.213159889687768        0.6776943577638307
5.25E9                   0.27719466540576276      0.6532146521369976
5.28E9                   0.3384830002866041       0.6227390387877907
5.31E9                   0.3964712502194841       0.586569781842451
5.34E9                   0.45063845580986667      0.5450591007199664
5.37E9                   0.500500655220934        0.49860558255462345
5.4E9                    0.5456146999196074       0.44765028550632824
5.43E9                   0.5855816021976885       0.39267266864428796
5.46E9                   0.620049500857181        0.3341864321991699
5.49E9                   0.6487163461100374       0.27273528016333354
5.52E9                   0.6713323772270936       0.2088885537587779
5.55E9                   0.6877024114853008       0.14323664807015077
5.58E9                   0.6976878991961613       0.07638612174197429
5.61E9                   0.7012086429803848       0.008954438469730288
5.64E9                   0.6982440416668233       -0.05843566750816096
5.67E9                   0.6888337095426093       -0.12516214072869447
5.7E9                    0.6730773477013721       -0.1906097361987591
5.73E9                   0.6511338076181552       -0.2541761473680843
5.76E9                   0.6232193758101374       -0.3152779311397651
5.79E9                   0.5896053933336092       -0.37335607148566813
5.82E9                   0.5506153686105425       -0.42788110722281447
5.85E9                   0.5066217255829344       -0.47835784036060724
5.88E9                   0.4580422626847657       -0.5243296964192666
5.91E9                   0.405336319527804        -0.5653828055722788
5.94E9                   0.34900059694516533      -0.6011498244874277
5.97E9                   0.28956456997415697      -0.631313454999533
6.0E9                    0.22758546470742527      -0.6556095669531967
