% Model:              three_layers reality at 0.1mm.mph
% Version:            COMSOL 5.6.0.280
% Date:               Mar 8 2022, 10:03
% Table:              表格 1 - 全局计算 1
% freq (Hz)              real(emw.S11) (1)        imag(emw.S11) (1)
300000000                0.44000157676772         -0.8274586450883668
330000000                0.3499871292279675       -0.8668202306374687
360000000                0.2567201519726517       -0.8965913357090504
390000000                0.16117990483743477      -0.9165150846276312
420000000                0.064372019377344        -0.926432142412272
450000000                -0.03268287410370672     -0.9262845528759975
480000000                -0.12896065862999678     -0.9161178678553012
510000000                -0.22344524315649483     -0.8960817167546207
540000000                -0.3151399440949705      -0.8664289265477145
570000000                -0.4030786077220744      -0.8275132821576829
600000000                -0.48633635024520966     -0.7797860087560036
630000000                -0.5640397966637707      -0.7237910561416606
660000000                -0.6353767053884438      -0.6601592682837336
690000000                -0.6996048723949757      -0.589601526463883
720000000                -0.7560602165145252      -0.5129009615382273
750000000                -0.8041639574293872      -0.43090433731018296
780000000                -0.8434288077156151      -0.34451271480701384
810000000                -0.8734641124556582      -0.25467151290785794
840000000                -0.893979882005144       -0.1623600869047813
870000000                -0.9047896770141659      -0.06858095030658663
900000000                -0.9058123183761574      0.025651231265008203
930000000                -0.8970724090377106      0.11932074438048773
960000000                -0.8786996687077693      0.21142189995249006
990000000                -0.8509270967931439      0.30096994506977187
1020000000               -0.8140879926518605      0.38701168922033136
1050000000               -0.7686118757068111      0.4686357244243293
1080000000               -0.7150193606074687      0.5449821249080915
1110000000               -0.6539160545036307      0.6152515194989915
1140000000               -0.5859855541335045      0.6787134388647191
1170000000               -0.5119816304324293      0.7347138489960081
1200000000               -0.4327196963209985      0.782681793823369
1230000000               -0.3490676606568457      0.8221350808220204
1260000000               -0.2619362769119974      0.8526849557241665
1290000000               -0.17226909915464664     0.8740397250193036
1320000000               -0.08103216087203542     0.8860072974533166
1350000000               0.010796506869525047     0.8884966286107492
1380000000               0.10223740121027128      0.8815180651575345
1410000000               0.19232000233301588      0.8651825977149186
1440000000               0.28009304504313626      0.8397000431940459
1470000000               0.3646344987256619       0.8053761887797398
1500000000               0.4450611525376855       0.7626089404386525
1530000000               0.5205377086081846       0.7118835287306873
1560000000               0.5902852929784269       0.6537668338491138
1590000000               0.6535893017666798       0.5889009000034914
1620000000               0.7098065084377286       0.5179957164821706
1650000000               0.7583713669248962       0.44182134911490634
1680000000               0.7988014547731872       0.36119951112030046
1710000000               0.830702010304017        0.2769946666080318
1740000000               0.8537695277466931       0.19010476333930915
1770000000               0.8677943846527768       0.1014516935381472
1800000000               0.8726624862446237       0.011971582859359522
1830000000               0.8683559219610424       -0.07739499236841421
1860000000               0.8549526400030687       -0.16571276050725978
1890000000               0.8326251562992039       -0.25206138574278264
1920000000               0.8016383248393684       -0.33554488202653493
1950000000               0.7623462065860803       -0.4153007225118029
1980000000               0.7151880838259856       -0.4905085650734017
2010000000               0.6606836751271775       -0.5603985254517742
2040000000               0.5994276115411884       -0.6242589441668004
2070000000               0.5320832347173425       -0.6814436121122117
2100000000               0.45937576766396016      -0.7313784421095241
2130000000               0.38208488206495783      -0.7735675958668276
2.16E9                   0.30103663449581025      -0.8075990868363591
2.19E9                   0.2170946624627094       -0.8331498567942209
2.22E9                   0.131150433002888        -0.8499902275934366
2.25E9                   0.04411227728144684      -0.8579874130409124
2.28E9                   -0.04310694844840626     -0.8571074295607979
2.31E9                   -0.12960328178185118     -0.8474143953539738
2.34E9                   -0.21449498558317687     -0.8290662193307444
2.37E9                   -0.2969336802311932      -0.8023065417967651
2.4E9                    -0.37611107527119575     -0.7674545558085306
2.43E9                   -0.45126071394232553     -0.7248959707961224
2.46E9                   -0.5216569044175386      -0.6750781591391819
2.49E9                   -0.5866147327674279      -0.6185099680343696
2.52E9                   -0.6454940598444124      -0.5557636813827249
2.55E9                   -0.6977076027663689      -0.487475620865405
2.58E9                   -0.7427310013940032      -0.4143432236090403
2.61E9                   -0.7801124339417117      -0.3371184824814235
2.64E9                   -0.8094802908258676      -0.2565988768844717
2.67E9                   -0.8305485077079571      -0.17361709936138672
2.7E9                    -0.8431197997849813      -0.08903050054392697
2.73E9                   -0.8470872256576135      -0.0037107274255845286
2.76E9                   -0.8424344531156776      0.08146627001118048
2.79E9                   -0.8292349771274922      0.16562983088209748
2.82E9                   -0.8076504356917106      0.24792378309759103
2.85E9                   -0.7779281028547639      0.32751525496051287
2.88E9                   -0.7403976045204343      0.4036030839746403
2.91E9                   -0.6954668904982761      0.4754257893740338
2.94E9                   -0.6436174960102421      0.5422690616482394
2.97E9                   -0.585399131711019       0.6034727145034472
3.0E9                    -0.5214236493846282      0.6584370422341985
3.03E9                   -0.4523584392839352      0.7066285265538765
3.06E9                   -0.3789193232329339      0.7475848412572456
3.09E9                   -0.30186301485529676     0.780919109448043
3.12E9                   -0.22197922393061056     0.8063233763154394
3.15E9                   -0.14008248559171826     0.8235712698121118
3.18E9                   -0.05700379668181075     0.8325198313950344
3.21E9                   0.02641785922686779      0.8331105085222099
3.24E9                   0.10934401936771874      0.8253693087297842
3.27E9                   0.19094520720931973      0.8094061211456265
3.3E9                    0.27040928515932805      0.7854132145965007
3.33E9                   0.34694962661687545      0.7536629223052133
3.36E9                   0.41981303924543634      0.7145045223479713
3.39E9                   0.488287367190045        0.668360322314137
3.42E9                   0.551708691709356        0.6157209581489208
3.45E9                   0.6094680381072284       0.5571399235153546
3.48E9                   0.6610174840622701       0.4932273595544898
3.51E9                   0.705875554089015        0.42464315711919887
3.54E9                   0.7436317817168053       0.3520894539878974
3.57E9                   0.7739503297274262       0.2763026452545653
3.6E9                    0.7965725827043237       0.19804505991277446
3.63E9                   0.8113186645417909       0.11809648300959817
3.66E9                   0.8180878813170775       0.03724571396192813
3.69E9                   0.8168581388658013       -0.04371765458298654
3.72E9                   0.8076844271828417       -0.1240110738460229
3.75E9                   0.7906964975886184       -0.20286635807540995
3.78E9                   0.7660958856682513       -0.2795363866547427
3.81E9                   0.7341524558513115       -0.3533011323043771
3.84E9                   0.6952006583953786       -0.4234730143924206
3.87E9                   0.6496356837631971       -0.48940164768164973
3.9E9                    0.5979096571892558       -0.5504781326548169
3.93E9                   0.5405279312878334       -0.6061390891087176
3.96E9                   0.478045420517503        -0.6558706414637877
3.99E9                   0.41106281119189686      -0.6992125068616734
4.02E9                   0.3402224134562566       -0.7357622249450051
4.05E9                   0.2662034229792134       -0.7651794344352174
4.08E9                   0.1897164304736018       -0.7871899882249189
4.11E9                   0.11149713232320622      -0.8015896387251511
4.14E9                   0.03229931908337687      -0.8082470304419026
4.17E9                   -0.047112683273705436    -0.8071057971823219
4.2E9                    -0.12597189214907586     -0.7981856527013909
4.23E9                   -0.20351663738713244     -0.7815824579097628
4.26E9                   -0.2789984279511444      -0.7574673215951194
4.29E9                   -0.35168958163714015     -0.7260848315604993
4.32E9                   -0.42089054131135645     -0.6877505176570606
4.35E9                   -0.4859368423393138      -0.6428476266047201
4.38E9                   -0.5462057119145322      -0.5918232562452884
4.41E9                   -0.6011222739718991      -0.5351838694825998
4.44E9                   -0.6501653123163137      -0.4734901960176025
4.47E9                   -0.6928725212808182      -0.4073515356809416
4.5E9                    -0.7288451570197865      -0.337419497136354
4.53E9                   -0.7577519983615004      -0.26438123347471354
4.56E9                   -0.7793325353120153      -0.18895226490403508
4.59E9                   -0.793399324421132       -0.11186900300725655
4.62E9                   -0.799839480848166       -0.03388110604474518
4.65E9                   -0.7986153128028137      0.04425620352938566
4.68E9                   -0.7897641383190313      0.12178974243064078
4.71E9                   -0.773397348084727       0.1979758029153672
4.74E9                   -0.7496987830113122      0.2720873707402964
4.77E9                   -0.7189224785859342      0.3434211045129055
4.8E9                    -0.6813897961860942      0.4113040689931249
4.83E9                   -0.6374859290623645      0.47510020209664855
4.86E9                   -0.5876557541740476      0.5342164613856802
4.89E9                   -0.5323990108446655      0.5881085544580766
4.92E9                   -0.47226482294333255     0.6362861259710493
4.95E9                   -0.4078456330794425      0.6783172649015329
4.98E9                   -0.3397706708859698      0.7138322139503162
5.01E9                   -0.26869911938941116     0.7425262060151219
5.04E9                   -0.19531316323583994     0.7641614127609073
5.07E9                   -0.12031109347967046     0.7785680561694974
5.1E9                    -0.04440060356360043     0.7856447911293676
5.13E9                   0.031707654558336885     0.7853584990226887
5.16E9                   0.10730626069031733      0.7777436247007504
5.19E9                   0.18169702934733165      0.7629011387510244
5.22E9                   0.2541969089442434       0.7409971285479857
5.25E9                   0.32414382280871107      0.712260948306001
5.28E9                   0.3909024179683783       0.6769828276421099
5.31E9                   0.45386960500938867      0.6355108698325127
5.34E9                   0.5124797303063879       0.5882474523335613
5.37E9                   0.5662092439088632       0.5356451329038704
5.4E9                    0.614580801326802        0.47820222027840736
5.43E9                   0.6571668286201426       0.416458164989759
5.46E9                   0.6935926475414451       0.35098887013228525
5.49E9                   0.7235392776319316       0.2824019414706182
5.52E9                   0.7467460043752358       0.21133182321411798
5.55E9                   0.7630127424812887       0.1384347219515422
5.58E9                   0.7722021516858604       0.06438321505663475
5.61E9                   0.7742413973049065       -0.010139530787999841
5.64E9                   0.7691234025750838       -0.08444594727287878
5.67E9                   0.7569074255461228       -0.15785059789498307
5.7E9                    0.7377188190132593       -0.2296769155783118
5.73E9                   0.7117479005352639       -0.29926393990499434
5.76E9                   0.679247958520977        -0.3659728306787831
5.79E9                   0.6405325174469237       -0.4291929766827264
5.82E9                   0.5959720392589063       -0.4883476109497167
5.85E9                   0.5459902234217857       -0.5428989469568063
5.88E9                   0.49105999569861364      -0.5923529150736799
5.91E9                   0.4316991870391002       -0.6362635795691066
5.94E9                   0.3684658439252685       -0.6742372638250655
5.97E9                   0.3019531015371806       -0.7059363402219896
6.0E9                    0.23278358389011108      -0.7310825849348992
