% Model:              three_layers reality at 0.1mm.mph
% Version:            COMSOL 5.6.0.280
% Date:               Mar 8 2022, 09:59
% Table:              表格 1 - 全局计算 1
% freq (Hz)              real(emw.S11) (1)        imag(emw.S11) (1)
300000000                0.44151261024586663      -0.8286672511442124
330000000                0.35137775793202874      -0.8682484436015617
360000000                0.25795608026602485      -0.8982214525433696
390000000                0.16223089259113427      -0.9183247852682648
420000000                0.06521212330582067      -0.9283953482048933
450000000                -0.03207513605951125     -0.9283721903874439
480000000                -0.12860220210447615     -0.9182985662403701
510000000                -0.2233483635795751      -0.898322457346107
540000000                -0.3153123111464875      -0.8686956560926089
570000000                -0.4035233071021965      -0.8297714960169702
600000000                -0.48705197246538595     -0.7820013067846907
630000000                -0.5650205725064801      -0.7259296714524297
660000000                -0.6366126873837549      -0.6621885674133333
690000000                -0.7010821607218087      -0.5914904786156543
720000000                -0.757761227582892       -0.5146205735373525
750000000                -0.8060677320202405      -0.43242805123343636
780000000                -0.8455113555706982      -0.3458167645217748
810000000                -0.8756987889197009      -0.2557352367790323
840000000                -0.8963377924101924      -0.16316619342598893
870000000                -0.9072401036137026      -0.06911573452993056
900000000                -0.9083231645318673      0.02539772259217804
930000000                -0.8996106549418613      0.11935460004278049
960000000                -0.8812318328912696      0.2117452845847197
990000000                -0.8534196975119731      0.30158109256134297
1020000000               -0.816508003335763       0.38790494841340445
1050000000               -0.7709271687454402      0.46980165578403216
1080000000               -0.7171991339668864      0.5464076461448951
1110000000               -0.6559312359121267      0.6169200976286716
1140000000               -0.5878091781009541      0.6806053252928588
1170000000               -0.5135891835047911      0.7368063542313621
1200000000               -0.4340894267576319      0.784949597486129
1230000000               -0.35018084904613866     0.8245505725113649
1260000000               -0.2627774648703543      0.8552186019199142
1290000000               -0.1728262738777426      0.8766604569164689
1320000000               -0.08129689384766846     0.8886829145199843
1350000000               0.010828968044364907     0.891194212545366
1380000000               0.10256808830511091      0.8842043988686902
1410000000               0.19294622911199133      0.8678245840523746
1440000000               0.281008456307042        0.8422651182336992
1470000000               0.36582916447384783      0.8078327246514926
1500000000               0.4465217054437169       0.7649266329176235
1530000000               0.5222475224467074       0.7140337651312915
1560000000               0.5922246993729825       0.6557230370131704
1590000000               0.6557358420578826       0.5906388446089562
1620000000               0.7121352171732962       0.5194938143085891
1650000000               0.7608550832507697       0.4430609002583914
1680000000               0.8014111576851136       0.3621649186655404
1710000000               0.8334071735303941       0.2776736127090824
1740000000               0.8565384899366958       0.19048834512903404
1770000000               0.8705947304168955       0.10153451777782758
1800000000               0.8754614335941704       0.0117518186859368
1830000000               0.8711207116818468       -0.07791560275199139
1860000000               0.8576509225826872       -0.16652893288007975
1890000000               0.8352253721388124       -0.25316436598640696
1920000000               0.8041100736490471       -0.33692255813030836
1950000000               0.7646606020446672       -0.41693777507206065
1980000000               0.717318089850064        -0.4923866544439391
2010000000               0.6626044202937017       -0.5624965136230226
2040000000               0.6011166784845415       -0.626553149169922
2070000000               0.5335209214230091       -0.6839080928287254
2100000000               0.46054531762871653      -0.7339853113173325
2130000000               0.3829726800193436       -0.7762873594479189
2.16E9                   0.30163236369983687      -0.8104010070002247
2.19E9                   0.21739141843972032      -0.8360023365569621
2.22E9                   0.13114478708214003      -0.8528612120728059
2.25E9                   0.04380428220935482      -0.8608447995994798
2.28E9                   -0.043713817607611644    -0.8599194731536761
2.31E9                   -0.13050225263739446     -0.8501500888141778
2.34E9                   -0.21567616847820226     -0.831695624947575
2.37E9                   -0.29838427664999134     -0.8048010569476608
2.4E9                    -0.37781557769723695     -0.7697871152070981
2.43E9                   -0.45320106810629607     -0.727041214000627
2.46E9                   -0.5238126323156779      -0.6770126063622401
2.49E9                   -0.5889630461325025      -0.620212236076596
2.52E9                   -0.6480100061821162      -0.5572147414119691
2.55E9                   -0.7003642737707777      -0.4886590724250257
2.58E9                   -0.7454998094764037      -0.4152455503436474
2.61E9                   -0.7829634435610013      -0.3377292631229613
2.64E9                   -0.8123825842788138      -0.2569109388578897
2.67E9                   -0.833470566832988       -0.17362661348278383
2.7E9                    -0.8460298902930923      -0.0887370210042583
2.73E9                   -0.849953775700223       -0.003117182749257604
2.76E9                   -0.8452264209139115      0.08235362964401546
2.79E9                   -0.8319222042665553      0.16680152570159124
2.82E9                   -0.8102039834256207      0.2493672317855331
2.85E9                   -0.7803205690209483      0.3292149358418861
2.88E9                   -0.7426034187336045      0.40554072674198594
2.91E9                   -0.6974625852974614      0.477580594834327
2.94E9                   -0.6453819517410969      0.5446179467646612
2.97E9                   -0.5869137930227031      0.6059905799320162
3.0E9                    -0.5226727114666975      0.6610970592669068
3.03E9                   -0.45332900220455025     0.7094024402472372
3.06E9                   -0.3796015130943724      0.7504432863114667
3.09E9                   -0.3022500708188739      0.7838319353130663
3.12E9                   -0.22206755051069813     0.809259977937858
3.15E9                   -0.139871670052052       0.826500920380806
3.18E9                   -0.056496591677959535    0.8354120135188379
3.21E9                   0.027215587242828045     0.8359352403139737
3.24E9                   0.11042337518388196      0.8280974613837639
3.27E9                   0.19229438422753056      0.8120097246771757
3.3E9                    0.27201371374278516      0.7878657485157595
3.33E9                   0.34879215179435086      0.7559395880519051
3.36E9                   0.4218741258178728       0.716582494389903
3.39E9                   0.4905453299552498       0.6702189748608999
3.42E9                   0.554139948057734        0.617342064546149
3.45E9                   0.6120473797370316       0.5585078255920453
3.48E9                   0.6637183639907485       0.4943291045400739
3.51E9                   0.7086703845897852       0.4254686002860904
3.54E9                   0.7464922383517341       0.3526313259105935
3.57E9                   0.7768476563160249       0.2765565835734775
3.6E9                    0.7994778921247317       0.1980096065064163
3.63E9                   0.8142032305437206       0.11777304861342458
3.66E9                   0.8209234172038692       0.03663851322906787
3.69E9                   0.8196170598172938       -0.04460169384005422
3.72E9                   0.8103400940819253       -0.1251624230803627
3.75E9                   0.7932234413630082       -0.20427301777872853
3.78E9                   0.768470012343104        -0.2811840293529495
3.81E9                   0.7363512336473246       -0.35517325519826104
3.84E9                   0.6972032891951735       -0.4255510990336136
3.87E9                   0.6514232619167561       -0.4916653254131399
3.9E9                    0.5994653186152109       -0.5529053563303161
3.93E9                   0.541836995007093        -0.6087063132054892
3.96E9                   0.4790955230767214       -0.6585530139622376
3.99E9                   0.4118440323184416       -0.7019840764408614
4.02E9                   0.34072738909562833      -0.7385961662877083
4.05E9                   0.26642744046362504      -0.7680482925296623
4.08E9                   0.189657500027481        -0.7900659403203601
4.11E9                   0.11115602980486372      -0.804444770334664
4.14E9                   0.03167959627973911      -0.8110536201919887
4.17E9                   -0.048004722564516024    -0.8098366045177259
4.2E9                    -0.12712725019904206     -0.8008142025389624
4.23E9                   -0.20492371330919462     -0.7840833170419157
4.26E9                   -0.28064313883799663     -0.7598163626602856
4.29E9                   -0.3535555114619324      -0.728259481382697
4.32E9                   -0.42295911506367817     -0.6897299874829682
4.35E9                   -0.48818752307457025     -0.6446131221597167
4.38E9                   -0.5486162185587793      -0.5933581656091266
4.41E9                   -0.603668817641483       -0.5364739267502557
4.44E9                   -0.6528228486206064      -0.47452361869228066
4.47E9                   -0.6956150156724435      -0.4081191338627801
4.5E9                    -0.7316458597492054      -0.33791475296053053
4.53E9                   -0.7605837252745643      -0.2646003497500062
4.56E9                   -0.7821679504958179      -0.188894182634594
4.59E9                   -0.7962112207388833      -0.11153538821821425
4.62E9                   -0.8026010546854796      -0.033276307017732175
4.65E9                   -0.801300429802473       0.045125226944016196
4.68E9                   -0.7923475874686902      0.12291351543296208
4.71E9                   -0.7758550820932061      0.1993424562854235
4.74E9                   -0.7520081433027698      0.273682783411844
4.77E9                   -0.7210624033839776      0.34522906659855157
4.8E9                    -0.6833410100282125      0.4133064637735257
4.83E9                   -0.639231111825819       0.4772772054090382
4.86E9                   -0.5891796874906329      0.5365467563934403
4.89E9                   -0.5336886998338572      0.5905695591508948
4.92E9                   -0.47330959160432934     0.6388542300375477
4.95E9                   -0.4086371924460764      0.6809680720968689
4.98E9                   -0.3403031600387252      0.7165407858754191
5.01E9                   -0.26896912047780647     0.7452673034401591
5.04E9                   -0.1953196925475149      0.766909731270646
5.07E9                   -0.12005557115101109     0.7812984538546877
5.1E9                    -0.04388680460657213     0.788332507132346
5.13E9                   0.03247366567470298      0.7879793626925518
5.16E9                   0.10831621050369566      0.7802742556570292
5.19E9                   0.1829405304189459       0.7653191381035098
5.22E9                   0.25566156958808345      0.7432812609172545
5.25E9                   0.32581537172916963      0.7143913134221777
5.28E9                   0.3927648434349621       0.6789410196033387
5.31E9                   0.4559053072124639       0.6372801219913082
5.34E9                   0.5146696846997593       0.589812766344501
5.37E9                   0.5685331730282472       0.5369933914643796
5.4E9                    0.6170173529386201       0.47932228409312405
5.43E9                   0.6596937589512447       0.4173409550373863
5.46E9                   0.6961870093592722       0.35162743618832026
5.49E9                   0.7261776136819503       0.2827915171646414
5.52E9                   0.7494045468903032       0.21146986687920327
5.55E9                   0.7656676190739579       0.1383209415442042
5.58E9                   0.7748295970455357       0.06401957474209294
5.61E9                   0.7768179689324036       -0.010748824947306657
5.64E9                   0.7716261975905483       -0.0852944846849642
5.67E9                   0.7593142946645259       -0.15892982501156303
5.7E9                    0.7400085733753379       -0.2309762214782657
5.73E9                   0.7139005073865399       -0.3007707642309112
5.76E9                   0.6812447226876768       -0.3676727911931311
5.79E9                   0.6423562469144983       -0.4310700132624936
5.82E9                   0.5976071943418315       -0.4903841432721013
5.85E9                   0.5474230496710822       -0.5450760439561083
5.88E9                   0.4922786405467983       -0.5946504752294494
5.91E9                   0.43269379956135023      -0.6386605214948569
5.94E9                   0.3692286563279952       -0.6767117265161038
5.97E9                   0.30247849051713305      -0.7084658916520181
6.0E9                    0.23306811000505087      -0.7336444368454839
