% Model:              three_layers reality at 0.1mm.mph
% Version:            COMSOL 5.6.0.280
% Date:               Feb 24 2022, 22:35
% Table:              表格 1 - 全局计算 1
% freq (Hz)              real(emw.S11) (1)        imag(emw.S11) (1)
300000000                0.5407443600091751       -0.7280799634466314
330000000                0.4720872798363793       -0.7727683547862043
360000000                0.3998726474632648       -0.8111263266302683
390000000                0.32466115810138985      -0.8428623459876198
420000000                0.24704195031303514      -0.8677357451011679
450000000                0.16762690087234305      -0.8855591814612176
480000000                0.08704505778770706      -0.8962006131507165
510000000                0.005937117133170667     -0.8995847874750613
540000000                -0.07505009457980077     -0.8956942372167506
570000000                -0.1552691389399108      -0.8845697777464733
600000000                -0.2340774707405311      -0.8663104988094938
630000000                -0.31084290338103976     -0.8410732471050726
660000000                -0.3849490003785883      -0.8090715986429342
690000000                -0.4558003520501311      -0.7705743240734978
720000000                -0.522827694712945       -0.7259033542772156
750000000                -0.5854928262957215      -0.6754312588103769
780000000                -0.643293272443899       -0.6195782547742112
810000000                -0.6957666574055308      -0.5588087689729304
840000000                -0.7424947349921466      -0.4936275819993059
870000000                -0.7831070379547841      -0.4245755873995526
900000000                -0.8172841063847169      -0.3522252049764821
930000000                -0.8447602604294178      -0.2771754910625294
960000000                -0.8653258867676539      -0.20004699326087919
990000000                -0.8788292136659286      -0.12147640061218908
1020000000               -0.8851775552370242      -0.04211104274554536
1050000000               -0.8843380115283577      0.037396705875809906
1080000000               -0.8763376175975124      0.11639505968740504
1110000000               -0.8612629412201352      0.19423843589647294
1140000000               -0.839259135462026       0.2702929914928871
1170000000               -0.8105284588609344      0.3439420271918608
1200000000               -0.7753282820706587      0.4145912047443977
1230000000               -0.7339686058599266      0.4816735262214101
1260000000               -0.686809120547768       0.5446540281246968
1290000000               -0.6342558419565599      0.603034146830034
1320000000               -0.5767573631344928      0.6563557167644001
1350000000               -0.5148007644989289      0.7042045679115374
1380000000               -0.44890722803014216     0.7462136944225691
1410000000               -0.37962740290086955     0.7820659719746272
1440000000               -0.3075365715437728      0.8114964068869785
1470000000               -0.2332296653471392      0.8342939059404666
1500000000               -0.157316179249829       0.8503025611188987
1530000000               -0.08041503366020031     0.8594224488471287
1560000000               -0.0031494306174616685   0.8616099482654973
1590000000               0.0738582505730891       0.856877587609381
1620000000               0.14999147552392778      0.8452934319894588
1650000000               0.22464445473518746      0.8269800295082685
1680000000               0.29722688402684233      0.8021129359089496
1710000000               0.3671684916711268       0.770918840660535
1740000000               0.43392336129283715      0.7336733196795135
1770000000               0.49697400325049623      0.6906982416184998
1800000000               0.5558351502286428       0.6423588561023056
1830000000               0.6100572561409262       0.5890605931873174
1860000000               0.6592296804351421       0.5312456039826587
1890000000               0.702983542809173        0.46938907270413877
1920000000               0.7409942361499198       0.4039953304436066
1950000000               0.7729835879971276       0.3355938008404745
1980000000               0.7987216632180097       0.2647348075197301
2010000000               0.8180282027189577       0.1919852728037256
2040000000               0.8307736950805844       0.1179243365901235
2070000000               0.836880079749276        0.04313892390667326
2100000000               0.8363210822123656       -0.03178071095307905
2130000000               0.8291221831794549       -0.10624543655803209
2.16E9                   0.8153602253499135       -0.17967166576425028
2.19E9                   0.795162662851632        -0.2514857207256109
2.22E9                   0.7687064599218865       -0.32112811594265145
2.25E9                   0.7362166467484634       -0.3880577351776795
2.28E9                   0.6979645415642033       -0.45175587905181946
2.31E9                   0.6542656488329215       -0.5117301616655106
2.34E9                   0.6054772432415725       -0.5675182363305137
2.37E9                   0.5519956478710448       -0.6186913318712444
2.4E9                    0.49425321144722023      -0.6648575815229919
2.43E9                   0.43271498426135546      -0.7056651236007678
2.46E9                   0.36787508634434973      -0.740804944433492
2.49E9                   0.30025275955928166      -0.7700134163344089
2.52E9                   0.2303881068227158       -0.793074456991595
2.55E9                   0.1588375582249796       -0.8098212117259358
2.58E9                   0.08616916911700248      -0.820137160776744
2.61E9                   0.01295792638742892      -0.8239566110726545
2.64E9                   -0.06021874026750371     -0.8212646510662369
2.67E9                   -0.13278513001383258     -0.8120967718361058
2.7E9                    -0.20417118831375156     -0.7965383857877789
2.73E9                   -0.27381638338457465     -0.7747243515383796
2.76E9                   -0.3411737611317538      -0.7468384137281949
2.79E9                   -0.4057142562205492      -0.713112335916811
2.82E9                   -0.4669311643090719      -0.6738245202655468
2.85E9                   -0.5243445878979707      -0.6292980219189538
2.88E9                   -0.5775056770316186      -0.5798979820259013
2.91E9                   -0.6260005467148448      -0.5260285653675264
2.94E9                   -0.6694538129329285      -0.46812949823568567
2.97E9                   -0.7075317260278854      -0.4066722855356335
3.0E9                    -0.7399448945801526      -0.34215616601084387
3.03E9                   -0.7664505949938554      -0.2751038505214848
3.06E9                   -0.7868546598163002      -0.20605708178644414
3.09E9                   -0.8010129358941214      -0.1355720527577906
3.12E9                   -0.8088323034878114      -0.06421472202439851
3.15E9                   -0.810271249338955       0.0074439331959588175
3.18E9                   -0.8053399901069828      0.07883268429546053
3.21E9                   -0.7941001467683735      0.149384795242526
3.24E9                   -0.7766639753051161      0.2185426997519498
3.27E9                   -0.753193163736737       0.28576256866599015
3.3E9                    -0.7238972101643536      0.3505187259504687
3.33E9                   -0.6890314007922227      0.4123078737407757
3.36E9                   -0.6488944108724857      0.470653089272009
3.39E9                   -0.6038255550818754      0.5251075594849921
3.42E9                   -0.5542017170156888      0.5752580222819967
3.45E9                   -0.5004339903076346      0.6207278869050784
3.48E9                   -0.44296406623435947     0.6611800096764797
3.51E9                   -0.3822604046755463      0.6963191053078684
3.54E9                   -0.318814226702712       0.7258937782238162
3.57E9                   -0.25313536817539667     0.7496981626048355
3.6E9                    -0.18574803399664097     0.7675731644057806
3.63E9                   -0.11718649262112582     0.7794073030078303
3.66E9                   -0.0479907493497409      0.785137154569389
3.69E9                   0.02129776459585635      0.7847474031565594
3.72E9                   0.09014045255792401      0.7782705091707949
3.75E9                   0.15800573035985777      0.7657860071907221
3.78E9                   0.22437309222254367      0.7474194470768373
3.81E9                   0.2887370372103241       0.723340993125793
3.84E9                   0.3506108301860744       0.6937636966485462
3.87E9                   0.40953007149124104      0.6589414581982983
3.9E9                    0.4650560493853288       0.6191666973147303
3.93E9                   0.5167788489452079       0.574767750626758
3.96E9                   0.5643201915657979       0.5261060235521211
3.99E9                   0.6073359815635904       0.4735729262581259
4.02E9                   0.6455185412497454       0.4175866300129025
4.05E9                   0.6785985235904612       0.35858868392284865
4.08E9                   0.7063465011734973       0.29704053268371694
4.11E9                   0.7285742398073091       0.23341997200991346
4.14E9                   0.7451356717030081       0.1682175705482226
4.17E9                   0.7559275849031679       0.101933077105725
4.2E9                    0.7608900418390324       0.03507182381868273
4.23E9                   0.7600065329381955       -0.031858867901965585
4.26E9                   0.7533038646110484       -0.09835327016487806
4.29E9                   0.7408517780885074       -0.1639108064753889
4.32E9                   0.7227622973568526       -0.2280395660058353
4.35E9                   0.6991888090538428       -0.29025975369991036
4.38E9                   0.6703248813531197       -0.35010705757836025
4.41E9                   0.6364028299269109       -0.4071359186554589
4.44E9                   0.5976920365751855       -0.46092269194316976
4.47E9                   0.5544970218358088       -0.5110686867308349
4.5E9                    0.5071552697017138       -0.5572030702532684
4.53E9                   0.45603480247356387      -0.5989856127388651
4.56E9                   0.4015315078498814       -0.6361092455645425
4.59E9                   0.34406622724802943      -0.6683024005755104
4.62E9                   0.2840816228958746       -0.6953310980667649
4.65E9                   0.22203884925666595      -0.7170007540041716
4.68E9                   0.1584140606306951       -0.7331576828592531
4.71E9                   0.09369479037404904      -0.743690279873669
4.74E9                   0.02837623759089443      -0.7485298743635093
4.77E9                   -0.03704250528675459     -0.7476512522083156
4.8E9                    -0.10206225493598904     -0.7410728497141076
4.83E9                   -0.1661875449929184      -0.7288566219921849
4.86E9                   -0.22893041747736548     -0.7111075874360475
4.89E9                   -0.2898141760920036      -0.6879730473715197
4.92E9                   -0.348377077129604       -0.6596414783272855
4.95E9                   -0.4041759296602736      -0.626341094958725
4.98E9                   -0.45678957264213643     -0.5883380847571894
5.01E9                   -0.5058221938331718      -0.5459345206852266
5.04E9                   -0.5509064543042349      -0.4994659639801257
5.07E9                   -0.5917063831169656      -0.4492987757782605
5.1E9                    -0.6279200092360036      -0.39582716242934124
5.13E9                   -0.6592817018823763      -0.33946998508088977
5.16E9                   -0.6855641964944771      -0.2806673685347855
5.19E9                   -0.7065802907124286      -0.2198771466862749
5.22E9                   -0.7221842022126861      -0.15757118119367092
5.25E9                   -0.7322725859726669      -0.09423158630324666
5.28E9                   -0.7367852107504632      -0.030346887711487164
5.31E9                   -0.7357052929901512      0.03359186056849512
5.34E9                   -0.7290594826442951      0.09709497752003987
5.37E9                   -0.7169174927245708      0.1596780467623237
5.4E9                    -0.699391365373343       0.22086576388554793
5.43E9                   -0.6766343728124595      0.2801956985625557
5.46E9                   -0.6488395603383793      0.337221927078843
5.49E9                   -0.6162379484608858      0.3915184914331497
5.52E9                   -0.579096420405551       0.4426826451691566
5.55E9                   -0.5377153283843329      0.49033785286613274
5.58E9                   -0.49242585688153184     0.5341365186019973
5.61E9                   -0.44358718304641337     0.5737624284623741
5.64E9                   -0.3915834725011241      0.6089329019719473
5.67E9                   -0.33682074288563024     0.6394006555895222
5.7E9                    -0.27972361809916574     0.664955385255507
5.73E9                   -0.22073198646463724     0.6854250723221361
5.76E9                   -0.16029757089210755     0.7006770081558169
5.79E9                   -0.09888042253053567     0.7106185217694706
5.82E9                   -0.03694536140825466     0.7151973887173972
5.85E9                   0.02504159742056942      0.7144019036511587
5.88E9                   0.08661678361733749      0.7082606129324619
5.91E9                   0.14732232904401457      0.696841721603602
5.94E9                   0.20670950501087654      0.6802522029618686
5.97E9                   0.2643419161989417       0.6586366443833465
6.0E9                    0.31979854124221724      0.632175860134824
