% Model:              three_layers reality at 0.1mm.mph
% Version:            COMSOL 5.6.0.280
% Date:               Mar 1 2022, 16:35
% Table:              表格 1 - 全局计算 1
% freq (Hz)              real(emw.S11) (1)        imag(emw.S11) (1)
300000000                0.5789082168442041       -0.7877806565250398
330000000                0.5028628290878369       -0.8382998340156285
360000000                0.4224704178763785       -0.8814974911626225
390000000                0.33843105369149884      -0.9170009286144556
420000000                0.2514775453601679       -0.944503617519488
450000000                0.1623691592874856       -0.9637683410760778
480000000                0.07188502173673116      -0.9746296962791295
510000000                -0.019182730101435654    -0.9769959374042312
540000000                -0.11003598493442333     -0.9708501430018445
570000000                -0.19987781545899708     -0.9562506898993308
600000000                -0.28791969060146        -0.9333310217152628
630000000                -0.37338867146268645     -0.9022987043957844
660000000                -0.45553451865268413     -0.86343376766732
690000000                -0.5336366374349945      -0.8170863384495419
720000000                -0.607010786440316       -0.7636735801529396
750000000                -0.6750154762962661      -0.703675960019968
780000000                -0.7370579858761719      -0.6376328754015517
810000000                -0.7925999269742008      -0.5661376782587303
840000000                -0.84116229201348        -0.48983214573176825
870000000                -0.8823299247879449      -0.40940045245526524
900000000                -0.9157553604290091      -0.32556270797064185
930000000                -0.9411619885507556      -0.23906812868626093
960000000                -0.9583465015998384      -0.15068791998877543
990000000                -0.967180599919773       -0.061207947935136
1020000000               -0.9676119346083301      0.028578716394672344
1050000000               -0.9596642795491608      0.1178792953382374
1080000000               -0.9434369343058535      0.2059087608175043
1110000000               -0.9191033698708866      0.29189716430994944
1140000000               -0.8869091392958416      0.3750967590663951
1170000000               -0.8471690847297473      0.4547888369715808
1200000000               -0.8002638812706192      0.5302902072803519
1230000000               -0.7466359659769193      0.6009592507486792
1260000000               -0.686784907366095       0.6662014896495908
1290000000               -0.6212622765289204      0.7254746220339708
1320000000               -0.5506660856500641      0.778292976904984
1350000000               -0.4756348631118895      0.8242313557151881
1380000000               -0.3968414363847112      0.8629282345367266
1410000000               -0.31498649494045755     0.8940883099670057
1440000000               -0.23079200504063213     0.9174843805375565
1470000000               -0.1449945468835047      0.9329585635878543
1500000000               -0.058338642390827825    0.9404228552242087
1530000000               0.02842986145249018      0.9398590481030665
1560000000               0.11457029250041391      0.9313180280600118
1590000000               0.1993534800340042       0.9149184761652578
1620000000               0.28206785609371626      0.890845007508732
1650000000               0.36202528503358666      0.8593457819046876
1680000000               0.438566579836858        0.8207296248168078
1710000000               0.5110666691848904       0.7753626990987321
1740000000               0.5789393843644127       0.7236647698060263
1770000000               0.6416418403201729       0.6661051052203666
1800000000               0.6986783897673754       0.6031980577261171
1830000000               0.7496041339391906       0.535498368060852
1860000000               0.7940279777728986       0.46359623593143806
1890000000               0.831615221135484        0.3881121993098624
1920000000               0.862089681460676        0.30969186351604466
1950000000               0.8852353464685845       0.22900051996224044
1980000000               0.9008975588804532       0.1467176928471003
2010000000               0.9089837381229142       0.06353165007093055
2040000000               0.9094636468884002       -0.01986608781702843
2070000000               0.9023692130154632       -0.10278621025240176
2100000000               0.8877939188761929       -0.1845470253107815
2130000000               0.8658917701909505       -0.264479795315096
2.16E9                   0.8368758518039656       -0.3419339883711696
2.19E9                   0.801016466161348        -0.4162824424760101
2.22E9                   0.7586388278168563       -0.4869264399262587
2.25E9                   0.7101202548632269       -0.553300672635854
2.28E9                   0.655886769100852        -0.6148780269873098
2.31E9                   0.5964090267949489       -0.6711740228610689
2.34E9                   0.5321976029695844       -0.7217506382059279
2.37E9                   0.46379786284957203      -0.7662192354867595
2.4E9                    0.39178487515686417      -0.8042424962790371
2.43E9                   0.31675883215011924      -0.8355356467051799
2.46E9                   0.23934110284816193      -0.8598675551487059
2.49E9                   0.16017055331389118      -0.8770621935457644
2.52E9                   0.0798995348696998       -0.8870004979339273
2.55E9                   -8.108533311713018E-4    -0.8896222281371096
2.58E9                   -0.08129621422170744     -0.8849273275084016
2.61E9                   -0.16089472692322887     -0.8729764782845637
2.64E9                   -0.23895311891740542     -0.8538907981350934
2.67E9                   -0.3148325100034976      -0.827850770735126
2.7E9                    -0.3879140154168621      -0.795094536782771
2.73E9                   -0.4576040656664563      -0.7559156469820659
2.76E9                   -0.5233394278995164      -0.7106603428634122
2.79E9                   -0.5845919160271088      -0.6597244058545206
2.82E9                   -0.64087277040572        -0.6035496027519309
2.85E9                   -0.6917366809395713      -0.5426197530122714
2.88E9                   -0.7367854232110566      -0.4774564456632924
2.91E9                   -0.7756710757291367      -0.40861443850961515
2.94E9                   -0.808098787697603       -0.3366767774080708
2.97E9                   -0.8338290695131182      -0.26224967853365583
3.0E9                    -0.8526795826141055      -0.18595722076230148
3.03E9                   -0.8645264104727647      -0.10843589878573219
3.06E9                   -0.8693047984108605      -0.030329090089278476
3.09E9                   -0.8670093561996112      0.04771850954921984
3.12E9                   -0.8576937239097728      0.12506642683789557
3.15E9                   -0.8414697079952189      0.20108387336818448
3.18E9                   -0.8185059009020673      0.275155076470686
3.21E9                   -0.789025803374271       0.3466844278764545
3.24E9                   -0.7533054738353706      0.41510140278099705
3.27E9                   -0.7116707336571585      0.4798652057291357
3.3E9                    -0.6644939606459399      0.5404691038412347
3.33E9                   -0.6121905058211735      0.5964444119580631
3.36E9                   -0.5552147706781818      0.6473640980425044
3.39E9                   -0.4940559839593796      0.6928459805083388
3.42E9                   -0.42923371880354755     0.7325554920987914
3.45E9                   -0.3612931934278607      0.7662079875996369
3.48E9                   -0.2908004014875121      0.7935705755574982
3.51E9                   -0.21833712187597049     0.8144634578672778
3.54E9                   -0.14449586190072541     0.8287607661852153
3.57E9                   -0.0698747914535014      0.8363908912876079
3.6E9                    0.0049272719168564905    0.837336310674554
3.63E9                   0.07931576744308373      0.8316329303564145
3.66E9                   0.15270512928930702      0.8193689675135678
3.69E9                   0.2245233092338378       0.8006834100421326
3.72E9                   0.29421604355887826      0.7757640959353296
3.75E9                   0.3612508332984204       0.7448454599439434
3.78E9                   0.425120616847976        0.7082059976670074
3.81E9                   0.48534712451806233      0.6661654985423278
3.84E9                   0.5414839168170199       0.619082098106011
3.87E9                   0.5931191214786292       0.5673491942342486
3.9E9                    0.6398778956707535       0.5113922600784347
3.93E9                   0.6814246451190705       0.4516655685877063
3.96E9                   0.717465027181137        0.38864882407992635
3.99E9                   0.7477477500641602       0.32284368149977855
4.02E9                   0.7720661592757327       0.25477012943135324
4.05E9                   0.7902595820198492       0.1849627205935782
4.08E9                   0.8022143871515461       0.11396665088701244
4.11E9                   0.8078647162179871       0.042333709188699165
4.14E9                   0.807192849591425        -0.029381861216643143
4.17E9                   0.8002291872645689       -0.10062753713548774
4.2E9                    0.7870518416294623       -0.17085667080451172
4.23E9                   0.7677858549820731       -0.23953257606131745
4.26E9                   0.7426020645069183       -0.30613250576560413
4.29E9                   0.7117156409291816       -0.37015149265155683
4.32E9                   0.6753843247072013       -0.43110603568703276
4.35E9                   0.6339063778170481       -0.48853761971322984
4.38E9                   0.5876182628271315       -0.5420160569266658
4.41E9                   0.5368920567029019       -0.5911426356174163
4.44E9                   0.482132605785383        -0.6355530567385991
4.47E9                   0.42377443102781637      -0.6749201340541863
4.5E9                    0.3622783975297328       -0.7089562307713295
4.53E9                   0.29812816871318654      -0.7374154050303964
4.56E9                   0.2318264717899041       -0.7600952386586327
4.59E9                   0.16389120661297146      -0.7768383278585027
4.62E9                   0.0948514338104351       -0.7875334205481415
4.65E9                   0.025243279325828108     -0.7921161921649968
4.68E9                   -0.0443942089987214      -0.7905696585495262
4.71E9                   -0.11352322162621249     -0.7829242294196073
4.74E9                   -0.18161133847271174     -0.7692574073116843
4.77E9                   -0.24813564945709132     -0.7496931344084036
4.8E9                    -0.31258682329100496     -0.7244007847355056
4.83E9                   -0.37447309883709523     -0.6935937948594265
4.86E9                   -0.4333241650875354      -0.657527925589325
4.89E9                   -0.4886948866130778      -0.6164991522264427
4.92E9                   -0.5401688247350143      -0.5708411912729758
4.95E9                   -0.5873615031948471      -0.520922685093358
4.98E9                   -0.6299233717064181      -0.46714407975806005
5.01E9                   -0.6675424306820861      -0.4099342426206202
5.04E9                   -0.6999464944045235      -0.3497468725378488
5.07E9                   -0.726905085182767       -0.2870567559257435
5.1E9                    -0.7482309648048808      -0.22235591523248172
5.13E9                   -0.7637813180379333      -0.15614968432758325
5.16E9                   -0.7734586031971165      -0.08895273091817496
5.19E9                   -0.7772110760869145      -0.02128503522125206
5.22E9                   -0.7750329793994202      0.0463321679110264
5.25E9                   -0.766964377050392       0.11338046658226837
5.28E9                   -0.7530906098982231      0.17934833452675325
5.31E9                   -0.7335413598405831      0.2437351263707727
5.34E9                   -0.7084893303027489      0.3060549449244275
5.37E9                   -0.6781485737541916      0.3658403260005904
5.4E9                    -0.6427725114377337      0.42264570411505664
5.43E9                   -0.6026516919634528      0.4760506439140123
5.46E9                   -0.5581113253525624      0.5256628385330872
5.49E9                   -0.509508613584087       0.5711208824972218
5.52E9                   -0.45722988451066393     0.612096823091676
5.55E9                   -0.4016875277435764      0.6482984837562848
5.58E9                   -0.34331673041080246     0.6794715403148208
5.61E9                   -0.2825720170882341      0.7054013193783718
5.64E9                   -0.2199236102932571      0.7259142807347255
5.67E9                   -0.1558536439592917      0.740879144144591
5.7E9                    -0.09085227948078832     0.750207627802837
5.73E9                   -0.02541378759344646     0.7538547818083782
5.76E9                   0.039967336209378784     0.7518189231000472
5.79E9                   0.10480016412854028      0.7441412018069009
5.82E9                   0.16860099867233613      0.7309048435311274
5.85E9                   0.23089689223116122      0.7122341114923685
5.88E9                   0.2912290274371038       0.6882930181636856
5.91E9                   0.34915596529777526      0.6592837967691472
5.94E9                   0.4042567587398127       0.6254451288965459
5.97E9                   0.4561339147203519       0.587050120921505
6.0E9                    0.5044161759051872       0.5444040279478853
