% Model:              three_layers reality at 0.1mm.mph
% Version:            COMSOL 5.6.0.280
% Date:               Mar 10 2022, 16:20
% Table:              表格 1 - 全局计算 1
% freq (Hz)              real(emw.S11) (1)        imag(emw.S11) (1)
300000000                0.4698346091236758       -0.7713569542560623
330000000                0.39078400799208046      -0.8107988712925756
360000000                0.30872470872503616      -0.8423725096416796
390000000                0.22438902531459348      -0.865856699784403
420000000                0.13853435647272222      -0.8810962451165638
450000000                0.051934868112448566     -0.8880059546971663
480000000                -0.03462678379938638     -0.8865731788209326
510000000                -0.12036763188903504     -0.876859083419962
540000000                -0.20451242154048038     -0.8589988230722249
570000000                -0.28630142448212503     -0.8332007272398134
600000000                -0.36499798383978743     -0.7997445881846983
630000000                -0.43989573258501213     -0.7589791243031863
660000000                -0.5103254283448225      -0.7113186849160533
690000000                -0.575661347947288       -0.6572392598972766
720000000                -0.6353271892490989      -0.5972738566333897
750000000                -0.6888014308764776      -0.5320073081558176
780000000                -0.7356221053215153      -0.46207057796099704
810000000                -0.7753909461629697      -0.3881346296000697
840000000                -0.8077768764916597      -0.3109039304618988
870000000                -0.8325188115338881      -0.23110966199556096
900000000                -0.8494277558711811      -0.149502709027333
930000000                -0.8583881823313061      -0.0668465023596455
960000000                -0.8593586870721274      0.01609021152758773
990000000                -0.8523719225001447      0.09854059995090561
1020000000               -0.8375338169066149      0.17974690039223634
1050000000               -0.8150220967339108      0.25896743332584155
1080000000               -0.785084134099836       0.3354834036370029
1110000000               -0.7480341487317368      0.4086054258885772
1140000000               -0.704249799358654       0.47767971289666705
1170000000               -0.6541682054338293      0.5420938707394698
1200000000               -0.5982814446700323      0.6012822492556449
1230000000               -0.5371315768914118      0.6547308012588916
1260000000               -0.47130524795943923     0.7019814104170201
1290000000               -0.40142793126548937     0.7426356529566662
1320000000               -0.32815786643543526     0.7763579650282029
1350000000               -0.25217975703101747     0.8028781936705605
1380000000               -0.1741982900153902      0.8219935158420816
1410000000               -0.0949315406105244      0.833569716293626
1440000000               -0.015104325598066204    0.8375418215523871
1470000000               0.06455843205630761      0.8339140933377256
1500000000               0.14333826619428153      0.8227593908696517
1530000000               0.22052959854870358      0.804217917272014
1560000000               0.2954459810680568       0.7784953707300581
1590000000               0.36742609523571945      0.7458605263016944
1620000000               0.435839457824754        0.706642278974275
1650000000               0.500091786013454        0.661226183026811
1680000000               0.5596299789381043       0.6100505267278731
1710000000               0.6139466773308752       0.5536019849093686
1740000000               0.6625843675047488       0.4924108950773081
1770000000               0.7051390010140015       0.4270462053575713
1800000000               0.7412631066589136       0.3581101447072386
1830000000               0.7706683771493726       0.28623266737636216
1860000000               0.7931277186212814       0.21206572473147123
1890000000               0.8084767576376152       0.13627741777715385
1920000000               0.816614807129517        0.05954608307586371
1950000000               0.817505300068352        -0.017445637041717667
1980000000               0.8111757076593332       -0.0940166932264645
2010000000               0.7977169669080937       -0.16949345641988658
2040000000               0.777282450073804        -0.2432154449519302
2070000000               0.7500865133930511       -0.31454093978234005
2100000000               0.7164026603352796       -0.38285250213916444
2130000000               0.6765613372084567       -0.44756244218444197
2.16E9                   0.6309473328726697       -0.5081183253409103
2.19E9                   0.5799966624321146       -0.5640086263240792
2.22E9                   0.5241926665053075       -0.6147686068027449
2.25E9                   0.4640608769040917       -0.6599863276191906
2.28E9                   0.4001620965811912       -0.6993083297825202
2.31E9                   0.3330833501585387       -0.7324439443338076
2.34E9                   0.26342715278049766      -0.7591667055741188
2.37E9                   0.19180087810877408      -0.7793115830858808
2.4E9                    0.1188090770771483       -0.7927682871212405
2.43E9                   0.045051057719368084     -0.7994732765045295
2.46E9                   -0.02887657976779199     -0.7994044441492283
2.49E9                   -0.10237574861569332     -0.7925811091307269
2.52E9                   -0.174845107254383       -0.7790686782406075
2.55E9                   -0.2456828375000475      -0.7589848622496419
2.58E9                   -0.31429334851951113     -0.732504303583043
2.61E9                   -0.38009582923982177     -0.6998601216646321
2.64E9                   -0.44253272156544166     -0.6613425257774024
2.67E9                   -0.5010770662340226      -0.6172954137930088
2.7E9                    -0.5552384614185132      -0.5681118865368012
2.73E9                   -0.6045677893909456      -0.5142293051470758
2.76E9                   -0.6486609798876272      -0.45612421360820155
2.79E9                   -0.6871620438320628      -0.3943072486764963
2.82E9                   -0.7197655347228011      -0.32931806023774374
2.85E9                   -0.7462185267417834      -0.2617202300330665
2.88E9                   -0.766322151686591       -0.19209617336478194
2.91E9                   -0.7799327089770813      -0.12104201801384402
2.94E9                   -0.7869623492388146      -0.049162466395461936
2.97E9                   -0.7873793266047155      0.02293434188751303
3.0E9                    -0.7812078147770434      0.09464194147110616
3.03E9                   -0.7685272846375315      0.1653605950273899
3.06E9                   -0.7494714455062034      0.23450225384446477
3.09E9                   -0.7242267572952885      0.3014953879213458
3.12E9                   -0.6930305261265325      0.36578964815955284
3.15E9                   -0.656168601003997       0.42686032506623256
3.18E9                   -0.6139726932225917      0.4842125714820153
3.21E9                   -0.566817342829067       0.5373853610620508
3.24E9                   -0.5151165570857762      0.5859551587313515
3.27E9                   -0.4593201445322668      0.6295392830262752
3.3E9                    -0.3999097652891725      0.667798942078909
3.33E9                   -0.33739471460431947     0.7004419240997358
3.36E9                   -0.27230745403311857     0.7272249189957798
3.39E9                   -0.2051989046008659      0.7479554406996178
3.42E9                   -0.13663352070251397     0.7624933108384964
3.45E9                   -0.06718417361986387     0.7707516556642213
3.48E9                   0.0025731100991629677    0.772697362520595
3.51E9                   0.07206448845594747      0.7683509429920964
3.54E9                   0.14072363092857323      0.7577857604886901
3.57E9                   0.2079969196236011       0.7411266022555194
3.6E9                    0.2733483985607645       0.7185476085848803
3.63E9                   0.3362643453969145       0.6902696107251953
3.66E9                   0.3962573559180218       0.6565569662307718
3.69E9                   0.4528698603109687       0.6177140091018805
3.72E9                   0.5056770249911644       0.5740812486189928
3.75E9                   0.5542890290054582       0.5260314570884267
3.78E9                   0.598352738586135        0.4739657872403335
3.81E9                   0.6375528416901255       0.4183100559095702
3.84E9                   0.6716125502963103       0.35951131559264576
3.87E9                   0.7002940278261822       0.2980347977259192
3.9E9                    0.7233987360614628       0.23436124302393382
3.93E9                   0.7407678973809233       0.16898454137087596
3.96E9                   0.7522832176549699       0.10240951073554505
3.99E9                   0.7578679160667321       0.03514958462569007
4.02E9                   0.757487986050629        -0.032275822890865745
4.05E9                   0.7511535045967168       -0.099344441888
4.08E9                   0.7389197485422575       -0.165534820161817
4.11E9                   0.7208878804746466       -0.23033048603484355
4.14E9                   0.6972050258434774       -0.2932244458720182
4.17E9                   0.6680636533789848       -0.353723811815304
4.2E9                    0.6337002647507852       -0.41135435548079835
4.23E9                   0.5943934729260525       -0.4656648238201183
4.26E9                   0.550461588118563        -0.5162309159252233
4.29E9                   0.5022598331752628       -0.5626588835925037
4.32E9                   0.4501772846271722       -0.6045887666440364
4.35E9                   0.3946335959723463       -0.6416972966774904
4.38E9                   0.33607552206762537      -0.67370049986581
4.41E9                   0.27497323971099397      -0.7003560087021408
4.44E9                   0.21181645436983276      -0.7214650658384241
4.47E9                   0.14711029431106937      -0.7368741810011084
4.5E9                    0.08137101435521465      -0.7464763908810131
4.53E9                   0.015121555248831166     -0.7502120733159235
4.56E9                   -0.051112974848734005    -0.7480692797490912
4.59E9                   -0.11680981659656862     -0.740083570979678
4.62E9                   -0.18145298961247536     -0.7263373673865801
4.65E9                   -0.2445375610223197      -0.7069588516305716
4.68E9                   -0.30557369800339523     -0.6821204831633079
4.71E9                   -0.3640904801897897      -0.6520371924313789
4.74E9                   -0.4196394793706543      -0.6169643132400374
4.77E9                   -0.4717981348459157      -0.5771952851018771
4.8E9                    -0.5201729534329733      -0.5330591223134048
4.83E9                   -0.564402540832624       -0.48491761745912687
4.86E9                   -0.6041604335622982      -0.43316223733821024
4.89E9                   -0.6391576624600095      -0.37821068481361236
4.92E9                   -0.6691449544693437      -0.32050313651329176
4.95E9                   -0.6939144779539839      -0.26049821240508336
4.98E9                   -0.7133010592221839      -0.1986687758784143
5.01E9                   -0.7271828393564861      -0.13549769139217277
5.04E9                   -0.7354813926387783      -0.07147367372316432
5.07E9                   -0.7381613804354181      -0.007087344596622619
5.1E9                    -0.7352298550437572      0.057172430761307874
5.13E9                   -0.7267353432276563      0.12082191624951702
5.16E9                   -0.712766818707081       0.18338564039339772
5.19E9                   -0.6934526167192736      0.24439939321165483
5.22E9                   -0.6689592683787904      0.30341318620063196
5.25E9                   -0.6394901687775509      0.3599942312425458
5.28E9                   -0.6052839725040524      0.4137299156693218
5.31E9                   -0.5666126471555541      0.464230676077806
5.34E9                   -0.5237791934717551      0.5111326410561191
5.37E9                   -0.47711512136371037     0.554099939467679
5.4E9                    -0.4269778153504943      0.5928266424851035
5.43E9                   -0.3737479126418262      0.6270383889302353
5.46E9                   -0.31782676148966654     0.6564937995743045
5.49E9                   -0.25963395323911803     0.6809857982360406
5.52E9                   -0.1996048567884781      0.7003429276971996
5.55E9                   -0.13818804700229156     0.714430691962629
5.58E9                   -0.07584251469810753     0.7231528915019299
5.61E9                   -0.013034572195867612    0.7264528599960219
5.64E9                   0.04976558111295546      0.7243144703717452
5.67E9                   0.11208760203764073      0.7167627633425382
5.7E9                    0.173464953419451        0.703864071323657
5.73E9                   0.2334389013366007       0.6857255678497123
5.76E9                   0.2915623814657815       0.6624942580035017
5.79E9                   0.3474035908889169       0.6343555113546816
5.82E9                   0.4005492427983967       0.6015312884574474
5.85E9                   0.4506075146838942       0.5642782006706571
5.88E9                   0.49721078230357885      0.5228854780188196
5.91E9                   0.5400182363164673       0.4776728370040245
5.94E9                   0.5787184333448544       0.4289881802180004
5.97E9                   0.6130317682466604       0.37720504337352434
6.0E9                    0.6427127999901938       0.32271972814335714
