% Model:              three_layers reality at 0.1mm.mph
% Version:            COMSOL 5.6.0.280
% Date:               Feb 25 2022, 14:46
% Table:              表格 1 - 全局计算 1
% freq (Hz)              real(emw.S11) (1)        imag(emw.S11) (1)
300000000                0.6186093351697665       -0.7514286633759544
330000000                0.5505076566493271       -0.802369652830389
360000000                0.4782388196177989       -0.8472057210348723
390000000                0.40245854914932216      -0.8855455133088544
420000000                0.32370044115717644      -0.9171360403394022
450000000                0.24256010047787735      -0.9417497284586114
480000000                0.15965037195851758      -0.9592109521570094
510000000                0.07559734174411084      -0.9693975467712271
540000000                -0.008964394295500356    -0.9722418309329012
570000000                -0.09339654055532538     -0.9677312714090361
600000000                -0.17706195990405044     -0.9559087012745998
630000000                -0.25932953741838594     -0.9368720927556261
660000000                -0.3395790120992363      -0.9107738880433409
690000000                -0.4172057331974407      -0.8778198948063181
720000000                -0.4916253045116105      -0.8382677557214836
750000000                -0.5622780771974175      -0.7924250049731236
780000000                -0.6286334549170041      -0.7406467269993787
810000000                -0.6901939760905972      -0.683332836462089
840000000                -0.7464991386457032      -0.6209250016581007
870000000                -0.7971289369741896      -0.5539032356614352
900000000                -0.8417070814301578      -0.4827821826304504
930000000                -0.8799038732583014      -0.40810713049452085
960000000                -0.9114387123035752      -0.33044978108117523
990000000                -0.9360822160075308      -0.25040381344536494
1020000000               -0.953657932934045       -0.1685802761782219
1050000000               -0.9640436369181297      -0.08560284662887338
1080000000               -0.9671721914957282      -0.002102996234573239
1110000000               -0.9630319784693433      0.08128489854387366
1140000000               -0.9516668877516526      0.16392845956971513
1170000000               -0.9331758696550212      0.2452021843059091
1200000000               -0.9077120546057981      0.3244922577572793
1230000000               -0.875481448958753       0.4012012592793836
1260000000               -0.8367412188794031      0.47475272758446574
1290000000               -0.7917975784362714      0.5445955460316456
1320000000               -0.7410033003547127      0.6102081150770335
1350000000               -0.6847548719079032      0.6711022780201221
1380000000               -0.6234893206040898      0.7268269706490362
1410000000               -0.5576807368351434      0.7769715672047424
1440000000               -0.48783652370566855     0.8211688972536901
1470000000               -0.4144934050923609      0.8590979124003276
1500000000               -0.33821322565871015     0.8904859837326425
1530000000               -0.2595785768713597      0.9151108149363418
1560000000               -0.17918828506277862     0.9328019586578172
1590000000               -0.09765279758838333     0.9434419275157853
1620000000               -0.015589503427501407    0.9469668943816768
1650000000               0.06638197501686385      0.9433669796716111
1680000000               0.14764448234148678      0.9326861268622699
1710000000               0.2275879877788686       0.9150215705078906
1740000000               0.3056141641330792       0.8905229040713156
1770000000               0.38114085508131357      0.859390757813558
1800000000               0.45360639742276876      0.8218750998341684
1830000000               0.5224737679957844       0.7782731757615706
1860000000               0.587234525178102        0.7289271052811004
1890000000               0.6474125178413552       0.6742211557729493
1920000000               0.7025673361592389       0.6145787153803589
1950000000               0.7522974808952978       0.5504589897032878
1980000000               0.796243229738204        0.48235344829192717
2010000000               0.8340891823326206       0.4107820478082103
2040000000               0.8655664671222617       0.3362892609887329
2070000000               0.8904545962746756       0.25943994082792005
2100000000               0.9085829572806419       0.18081505056299885
2130000000               0.9198319321810356       0.10100729091273793
2.16E9                   0.9241336382885333       0.020616656077964028
2.19E9                   0.9214722866446377       -0.05975404946244028
2.22E9                   0.9118841571190871       -0.13950370105536225
2.25E9                   0.8954571917279083       -0.21803731917228492
2.28E9                   0.8723302101957764       -0.2947704783921558
2.31E9                   0.8426917544428723       -0.3691336287130699
2.34E9                   0.8067785707370518       -0.44057629987867286
2.37E9                   0.7648737408409709       -0.5085711586792793
2.4E9                    0.717304474664159        -0.5726178924382226
2.43E9                   0.664439578765256        -0.6322468911412823
2.46E9                   0.6066866155587413       -0.6870227023743187
2.49E9                   0.5444887692697714       -0.7365472319073898
2.52E9                   0.4783214365929581       -0.7804626611341746
2.55E9                   0.40868856534667763      -0.8184540495067779
2.58E9                   0.33611877414026275      -0.8502515896414722
2.61E9                   0.2611612980220887       -0.8756324894191057
2.64E9                   0.18438181410006127      -0.8944224712162218
2.67E9                   0.10635819572089922      -0.9064968998842148
2.7E9                    0.027676224215746538     -0.9117815634807024
2.73E9                   -0.051074736026918546    -0.9102531237794409
2.76E9                   -0.12930610117784253     -0.9019392312665551
2.79E9                   -0.20643445986972964     -0.8869182802151198
2.82E9                   -0.2818859605660979      -0.8653187772248994
2.85E9                   -0.3551006464867982      -0.8373183098293064
2.88E9                   -0.4255366869266132      -0.8031421189913517
2.91E9                   -0.49267446034985696     -0.7630612916015544
2.94E9                   -0.5560204518557067      -0.7173905951119076
2.97E9                   -0.6151109348299135      -0.6664859778050762
3.0E9                    -0.6695154097864363      -0.6107417586555097
3.03E9                   -0.7188397763845609      -0.5505875308022681
3.06E9                   -0.7627292157875772      -0.4864848039923173
3.09E9                   -0.800870762599045       -0.4189234126048538
3.12E9                   -0.8329955475118451      -0.3484177176917209
3.15E9                   -0.8588806942231225      -0.27550263297686967
3.18E9                   -0.8783508567548396      -0.20072950646608284
3.21E9                   -0.8912793862359982      -0.12466189044250771
3.24E9                   -0.897589119361318       -0.047871233413708414
3.27E9                   -0.8972527837629518      0.029067471674965824
3.3E9                    -0.8902930188035815      0.1055800485039423
3.33E9                   -0.876782013472875       0.18109747341277888
3.36E9                   -0.8568407662164882      0.255060152285987
3.39E9                   -0.8306379745573921      0.3269221053583802
3.42E9                   -0.7983885654800141      0.39615502709396405
3.45E9                   -0.7603518802090745      0.462252190795561
3.48E9                   -0.7168295298777809      0.5247321679937823
3.51E9                   -0.6681629410892207      0.5831423350346956
3.54E9                   -0.6147306126417142      0.6370621411761538
3.57E9                   -0.5569451070365931      0.6861061144875721
3.6E9                    -0.4952498019570829      0.7299265846529297
3.63E9                   -0.430115428868627       0.768216103877893
3.66E9                   -0.3620364271348394      0.8007095500252158
3.69E9                   -0.2915271428586585      0.8271858989593709
3.72E9                   -0.2191179028289607      0.8474696555647943
3.75E9                   -0.14535099394372838     0.8614319359678485
3.78E9                   -0.07077657878769283     0.8689911959836515
3.81E9                   0.0040514217418692764    0.8701136033251302
3.84E9                   0.07857944831419648      0.864813053659481
3.87E9                   0.15225839517698408      0.853150832923342
3.9E9                    0.22454764411048433      0.8352349307272665
3.93E9                   0.2949190104152599       0.8112190122912826
3.96E9                   0.362860571950959        0.7813010589925261
3.99E9                   0.4278803527049741       0.7457216905368921
4.02E9                   0.48950983414135724      0.7047621846500844
4.05E9                   0.5473072694699609       0.6587422129602009
4.08E9                   0.6008607788173621       0.6080173139198854
4.11E9                   0.6497912060851789       0.5529761251891065
4.14E9                   0.6937547212705475       0.49403739856636614
4.17E9                   0.7324451546195242       0.4316468202829201
4.2E9                    0.7655960503050722       0.3662736595601339
4.23E9                   0.7929824287192098       0.29840726798668843
4.26E9                   0.8144222470354194       0.22855345323425863
4.29E9                   0.8297775490960263       0.15723075165507527
4.32E9                   0.8389552975182006       0.08496662571589507
4.35E9                   0.8419078834984994       0.012293612831640936
4.38E9                   0.8386333123479397       -0.06025454751956521
4.41E9                   0.8291750651704124       -0.13214678211730665
4.44E9                   0.8136216388291623       -0.20285852224687786
4.47E9                   0.7921057676097274       -0.27187548676758994
4.5E9                    0.7648033312795935       -0.33869738477593647
4.53E9                   0.7319319556645187       -0.4028415128063653
4.56E9                   0.6937493140106352       -0.4638462204923465
4.59E9                   0.6505511398796693       -0.5212742191207673
4.62E9                   0.6026689651636439       -0.5747157077648786
4.65E9                   0.5504675997470753       -0.6237912928059463
4.68E9                   0.4943423720253874       -0.6681546784790395
4.71E9                   0.4347161517331358       -0.7074951083623995
4.74E9                   0.37203617841226716      -0.7415395401994358
4.77E9                   0.3067707198327021       -0.7700545392752363
4.8E9                    0.239405585403188        -0.7928478779614012
4.83E9                   0.17044051986098163      -0.8097698312394261
4.86E9                   0.10038550270682017      -0.8207141597929767
4.89E9                   0.029756979312181287     -0.8256187737988023
4.92E9                   -0.040925949725600576    -0.8244660721226164
4.95E9                   -0.11114535352411324     -0.8172829534526675
4.98E9                   -0.18038828185505074     -0.8041404981627285
5.01E9                   -0.24815053323507685     -0.785153322279148
5.04E9                   -0.3139403511483869      -0.7604786077273916
5.07E9                   -0.37728201949768503     -0.7303148160193855
5.1E9                    -0.4377193290421745      -0.694900095506436
5.13E9                   -0.49481888772939026     -0.6545103952711373
5.16E9                   -0.5481732493524277      -0.6094573015366012
5.19E9                   -0.5974038369993621      -0.560085614940237
5.22E9                   -0.642163640312645       -0.5067706889030309
5.25E9                   -0.6821396678595906      -0.44991555065298894
5.28E9                   -0.7170551382614837      -0.3899478270652133
5.31E9                   -0.7466713951489157      -0.32731649815971964
5.34E9                   -0.7707895324066191      -0.2624885017400312
5.37E9                   -0.7892517171811293      -0.1959452140828709
5.4E9                    -0.8019421997896856      -0.12817883357073512
5.43E9                   -0.8087880022023323      -0.05968869569455894
5.46E9                   -0.8097592797804796      0.009022450409763431
5.49E9                   -0.804869354600604       0.07745217320140695
5.52E9                   -0.7941744223217123      0.1451020669153324
5.55E9                   -0.7777729381379019      0.21148140690087824
5.58E9                   -0.7558046905754727      0.2761107233471788
5.61E9                   -0.7284495747678115      0.3385252667422449
5.64E9                   -0.6959260790098588      0.39827834087789793
5.67E9                   -0.6584894997987032      0.45494448142626354
5.7E9                    -0.6164299009831127      0.5081224606337965
5.73E9                   -0.5700698325335831      0.5574380998324996
5.76E9                   -0.5197618245991379      0.602546871628892
5.79E9                   -0.46588567361521077     0.6431362732040427
5.82E9                   -0.40884554017532326     0.6789279517352447
5.85E9                   -0.34906688196536106     0.7096795644953409
5.88E9                   -0.2869932485247979      0.7351863593973871
5.91E9                   -0.2230829664669173      0.7552824664078278
5.94E9                   -0.15780574340948395     0.7698418950318996
5.97E9                   -0.09163921744335096     0.7787792365746008
6.0E9                    -0.025065476777107423    0.7820500721511062
