% Model:              three_layers reality at 0.1mm.mph
% Version:            COMSOL 5.6.0.280
% Date:               Feb 22 2022, 15:08
% Table:              表格 1 - 全局计算 1
% freq (Hz)              real(emw.S11) (1)        imag(emw.S11) (1)
300000000                0.44911838147391914      -0.7278034337619301
330000000                0.37540882493153344      -0.7652669836727879
360000000                0.2987957212746034       -0.7955008897785408
390000000                0.21995415673888452      -0.8182726603109084
420000000                0.13958433907126208      -0.833416117976414
450000000                0.05840310082974423      -0.8408332677460875
480000000                -0.022864088328990385    -0.8404953915225477
510000000                -0.10349076241485254     -0.8324433953314045
540000000                -0.182756821311828       -0.8167874320909179
570000000                -0.2599556310684985      -0.7937058232403318
600000000                -0.3344008501453158      -0.7634433045241136
630000000                -0.4054329526642456      -0.726308624533566
660000000                -0.4724254114266951      -0.682671528491346
690000000                -0.5347904990982636      -0.6329591640656684
720000000                -0.591984665098325       -0.5776519503199781
750000000                -0.6435134468328334      -0.5172789550874316
780000000                -0.6889358763041472      -0.4524128302244721
810000000                -0.7278683471439559      -0.38366435748069505
840000000                -0.7599879112226153      -0.31167666121014903
870000000                -0.7850349792583615      -0.23711914667145934
900000000                -0.8028154053828728      -0.1606812246904806
930000000                -0.8132019414107676      -0.08306588501712238
960000000                -0.8161350526269268      -0.00498318160783705
990000000                -0.8116230931126496      0.0728563068650896
1020000000               -0.7997418447669381      0.14974797827875463
1050000000               -0.7806334303047301      0.22499960812828892
1080000000               -0.7545046164808102      0.29793759036676076
1110000000               -0.7216245295255395      0.3679129598625923
1140000000               -0.682321810200072       0.43430714155988986
1170000000               -0.6369812410357473      0.4965373744815124
1200000000               -0.5860398829354886      0.5540617627780551
1230000000               -0.5299827626653768      0.6063839100843857
1260000000               -0.46933815640792287     0.653057098279212
1290000000               -0.4046725179204444      0.6936879764767313
1320000000               -0.336585102358604       0.7279397315028371
1350000000               -0.2657023391779014      0.7555347162329316
1380000000               -0.19267200888792113     0.7762565178967628
1410000000               -0.11815727954731835     0.7899514538913592
1440000000               -0.04283065929984371     0.7965294882632163
1470000000               0.0326320789179988       0.7959645675588989
1500000000               0.10755794496637866      0.7882943801320362
1530000000               0.18128269708344505      0.7736195482998862
1560000000               0.2531566728188741       0.752102267773323
1590000000               0.32255043471690376      0.7239644136433849
1620000000               0.38886018285792423      0.6894851367404105
1650000000               0.45151288918241783      0.648997978427061
1680000000               0.5099711118896233       0.6028875358230477
1710000000               0.5637374519156021       0.5515857129696293
1740000000               0.6123586173980308       0.49556759667527245
1770000000               0.6554290663965663       0.4353469984965852
1800000000               0.6925942026596115       0.37147170675661595
1830000000               0.7235531042082365       0.30451849426990796
1860000000               0.7480607696971742       0.2350879289120009
1890000000               0.7659298731631318       0.16379903481937427
1920000000               0.7770320238540734       0.09128385187589538
1950000000               0.7812985343549315       0.018181939888638126
1980000000               0.7787207072488542       -0.054865129150332086
2010000000               0.7693496576920342       -0.12721925289681918
2040000000               0.7532956958578979       -0.19825122601045847
2070000000               0.7307272973224713       -0.26734609908002
2100000000               0.7018696873162714       -0.3339084768203493
2130000000               0.6670030493645019       -0.39736779145874923
2.16E9                   0.6264603288260973       -0.457183618111366
2.19E9                   0.5806245234184655       -0.5128511154347446
2.22E9                   0.5299252279951988       -0.5639066409191041
2.25E9                   0.4748340529764068       -0.6099334431521568
2.28E9                   0.4158584608840693       -0.6505670090125363
2.31E9                   0.3535337629234661       -0.6854991608152862
2.34E9                   0.28841370905631775      -0.7144796104710341
2.37E9                   0.22106123454930435      -0.7373139271524386
2.4E9                    0.15204178997613005      -0.7538582227771158
2.43E9                   0.08192114259798977      -0.7640128681262043
2.46E9                   0.011267262270039425     -0.7677186156921522
2.49E9                   -0.059346602281636865    -0.7649572601185811
2.52E9                   -0.12934111824714112     -0.7557561546909446
2.55E9                   -0.19813403784782369     -0.7401938519198815
2.58E9                   -0.265146704062235       -0.7184042013629806
2.61E9                   -0.32981206497920346     -0.6905776939921411
2.64E9                   -0.39158254982050605     -0.6569602413906841
2.67E9                   -0.4499369353667826      -0.6178502062697236
2.7E9                    -0.5043860051001675      -0.5735944853211128
2.73E9                   -0.5544771477581193      -0.5245841742712752
2.76E9                   -0.5997981289225218      -0.4712500811816142
2.79E9                   -0.639980232672136       -0.414058185138928
2.82E9                   -0.6747009020658554      -0.35350505583742603
2.85E9                   -0.7036859479086687      -0.29011322239114906
2.88E9                   -0.7267113551625458      -0.22442647915741387
2.91E9                   -0.7436046932935155      -0.15700512578846643
2.94E9                   -0.7542461256685158      -0.08842115001586986
2.97E9                   -0.7585690093189728      -0.01925337168322351
3.0E9                    -0.7565600769417683      0.04991742575028282
3.03E9                   -0.7482591959600282      0.11851334447140585
3.06E9                   -0.7337587037655479      0.1859641670862475
3.09E9                   -0.7132023232008255      0.2517120598710021
3.12E9                   -0.6867836674546146      0.3152161473857984
3.15E9                   -0.6547443483652859      0.37595692271560693
3.18E9                   -0.6173717061616335      0.433440460257404
3.21E9                   -0.5749961813764581      0.48720240173971185
3.24E9                   -0.527988350737059       0.5368116899049037
3.27E9                   -0.47675564805964293     0.5818740277133264
3.3E9                    -0.421738789009658       0.6220350426013765
3.33E9                   -0.3634079159037216      0.6569831346329656
3.36E9                   -0.30225847670509065     0.6864519840005185
3.39E9                   -0.23880685270913357     0.7102226872898822
3.42E9                   -0.17358575352211184     0.7281254843479437
3.45E9                   -0.10713940696129357     0.7400410301853988
3.48E9                   -0.04001858611059142     0.7459011615073069
3.51E9                   0.027224465133912547     0.7456891083662345
3.54E9                   0.09404112516429636      0.7394391107420315
3.57E9                   0.15989140416254008      0.7272354194075514
3.6E9                    0.22424875560937904      0.7092106892750372
3.63E9                   0.2866045752211635       0.6855438076374797
3.66E9                   0.34647228618589526      0.6564572328017101
3.69E9                   0.40339093408480964      0.622213944382319
3.72E9                   0.4569282450366343       0.583114121882775
3.75E9                   0.5066831312377013       0.5394916747273791
3.78E9                   0.5522876583856816       0.49171074846402585
3.81E9                   0.5934085233164831       0.4401623294251062
3.84E9                   0.6297481311161168       0.3852610581221181
3.87E9                   0.6610454055964017       0.32744232949173213
3.9E9                    0.6870765009734936       0.26715969857992156
3.93E9                   0.7076555855029198       0.2048825286116705
3.96E9                   0.7226358249429432       0.14109373582742998
3.99E9                   0.7319106074404236       0.07628743144829091
4.02E9                   0.7354149441071837       0.0109662591193231
4.05E9                   0.7331268846767266       -0.05436171899999205
4.08E9                   0.7250687347383679       -0.11918663957233022
4.11E9                   0.7113078633085834       -0.18300090617083598
4.14E9                   0.6919569405113457       -0.24530357076398257
4.17E9                   0.6671735246178493       -0.30560484604435456
4.2E9                    0.6371590007794439       -0.36343056494821185
4.23E9                   0.6021569395218336       -0.4183264384688311
4.26E9                   0.5624509789637644       -0.4698620176886381
4.29E9                   0.5183623384333522       -0.5176343225460002
4.32E9                   0.4702470493647127       -0.5612711428415944
4.35E9                   0.4184929547846807       -0.60043403765349
4.38E9                   0.363516495472029        -0.6348210572104498
4.41E9                   0.3057592797415016       -0.6641691932662002
4.44E9                   0.2456844290835493       -0.6882565404541783
4.47E9                   0.18377270186239125      -0.7069041313485923
4.5E9                    0.12051841592364454      -0.7199773979153954
4.53E9                   0.05642521237214311      -0.7273872130605183
4.56E9                   -0.007998278556354599    -0.729090477079495
4.59E9                   -0.07224279589736203     -0.7250902324987298
4.62E9                   -0.13580275303910502     -0.71543531426701
4.65E9                   -0.19818041873969092     -0.7002195665823631
4.68E9                   -0.2588899215434034      -0.6795806773245175
4.71E9                   -0.317461051936511       -0.6536986895456466
4.74E9                   -0.3734428648286417      -0.6227942419342253
4.77E9                   -0.42640710421063244     -0.5871265670026943
4.8E9                    -0.4759514730119729      -0.5469912446816204
4.83E9                   -0.5217027518638828      -0.502717682786416
4.86E9                   -0.5633197370798317      -0.4546662867035105
4.89E9                   -0.6004959337016352      -0.40322529397684637
4.92E9                   -0.6329619169946707      -0.34880728191400157
4.95E9                   -0.6604872735931592      -0.2918453978671616
4.98E9                   -0.6828820528231216      -0.23278940081957755
5.01E9                   -0.6999976954406558      -0.1721016295395152
5.04E9                   -0.7117274538915715      -0.11025302027943801
5.07E9                   -0.7180063661066228      -0.04771928192528832
5.1E9                    -0.7188108825536761      0.015022701219075727
5.13E9                   -0.7141582616565388      0.07749822381530638
5.16E9                   -0.7041058319777078      0.13923791431387278
5.19E9                   -0.6887501703128368      0.19978077497932137
5.22E9                   -0.668226177294422       0.25867719646915227
5.25E9                   -0.6427059739038604      0.3154919963159745
5.28E9                   -0.6123975225841499      0.3698074602733137
5.31E9                   -0.5775429085179268      0.4212262975110161
5.34E9                   -0.5384162866072437      0.4693743896391609
5.37E9                   -0.49532157326828197     0.5139032358623994
5.4E9                    -0.4485900039006138      0.5544920602289097
5.43E9                   -0.398577669614953       0.5908496208173902
5.46E9                   -0.3456630980101689      0.622715812775049
5.49E9                   -0.2902448761738599      0.6498631699610155
5.52E9                   -0.23273925500919548     0.6720983446937137
5.55E9                   -0.17357763919007907     0.6892635950060729
5.58E9                   -0.11320386204944644     0.7012382503989336
5.61E9                   -0.0520711672676903      0.7079400740163998
5.64E9                   0.009361135997541936     0.7093264012260719
5.67E9                   0.07063131777927403      0.705394919946402
5.7E9                    0.1312790800025443       0.6961839743092666
5.73E9                   0.19084947247598585      0.6817723239385074
5.76E9                   0.24889670801222152      0.6622783682726787
5.79E9                   0.30498774181002075      0.6378589243350107
5.82E9                   0.3587055525752966       0.608707693444715
5.85E9                   0.4096521477027988       0.5750535445106875
5.88E9                   0.4574513723577008       0.5371586841903205
5.91E9                   0.5017516085086069       0.4953167093044448
5.94E9                   0.5422284104373108       0.44985048150121953
5.97E9                   0.5785870647500009       0.4011097480239227
6.0E9                    0.6105650130238747       0.3494684519754692
