% Model:              cali 3.02 0.91mm.mph
% Version:            COMSOL 5.6.0.280
% Date:               Feb 22 2022, 09:19
% Table:              表格 1 - 全局计算 1
% freq (Hz)              real(emw.S11) (1)        imag(emw.S11) (1)
300000000                0.4504632755314131       -0.8742759560846514
330000000                0.35220389466670243      -0.9177342844513303
360000000                0.24987311085836145      -0.9501397674471499
390000000                0.1447171984549879       -0.9711266946016788
420000000                0.03801301139466915      -0.9804703764684964
450000000                -0.06894804567883704     -0.9780893657200421
480000000                -0.17487615657881275     -0.9640458445297191
510000000                -0.2784991303166323      -0.9385441816183241
540000000                -0.37857812600299756     -0.9019276873300903
570000000                -0.47392286078534895     -0.8546736195489815
600000000                -0.5634061041110243      -0.7973865169958831
630000000                -0.6459772722623266      -0.730789959080031
660000000                -0.7206749508013113      -0.6557168724719363
690000000                -0.786638188196323       -0.5730985240896772
720000000                -0.843116422463811       -0.48395235712638307
750000000                -0.8894779225784133      -0.3893688415254466
780000000                -0.9252166478585915      -0.29049752284874114
810000000                -0.9499574517513691      -0.1885324623588848
840000000                -0.963459579671151       -0.08469726808359104
870000000                -0.9656184344700236      0.019770079292015862
900000000                -0.9564656069772286      0.12363240117662865
930000000                -0.9361671919552983      0.22566829204627534
960000000                -0.9050204319370216      0.3246866851261106
990000000                -0.8634487520163474      0.41954081269018834
1020000000               -0.8119952678315386      0.5091413608852576
1050000000               -0.7513148676177078      0.5924686101865378
1080000000               -0.6821649908044064      0.668583326310427
1110000000               -0.605395261875083       0.7366361009154664
1140000000               -0.5219362263202846      0.7958746924021493
1170000000               -0.43278769413561974     0.8456485943660857
1200000000               -0.33900802086739107     0.8854094048686605
1230000000               -0.24170839091748145     0.9147045376582515
1260000000               -0.1420652240424458      0.9331623606069774
1290000000               -0.041389406829513045    0.9404860649594818
1320000000               0.05869748231332768      0.9365998941305252
1350000000               0.1563937066847183       0.9223250630518575
1380000000               0.25137147205749494      0.8992969582933882
1410000000               0.3442765769806775       0.8672106249186193
1440000000               0.4338519363923027       0.8251455040986628
1470000000               0.5183976724586108       0.7734550776327276
1500000000               0.5967057793344079       0.7129715670210599
1530000000               0.6678682631280556       0.644580867425176
1560000000               0.7311296823269683       0.5691858263238164
1590000000               0.7858440876152823       0.487721970597468
1620000000               0.831467672894301        0.401164662659121
1650000000               0.8675606012120266       0.31052723957129025
1680000000               0.8937903237781019       0.21685422464279158
1710000000               0.9099342824677898       0.12121211421644791
1740000000               0.9158814519071108       0.02467905612682254
1770000000               0.9116326374532054       -0.07166584586098577
1800000000               0.8972996168155171       -0.16675312328315303
1830000000               0.873103348493578        -0.2595330529232321
1860000000               0.839371695271516        -0.3489849615078273
1890000000               0.7965375621634707       -0.4341255541438076
1920000000               0.7451391821517213       -0.5140167607898284
1950000000               0.6858252964500487       -0.5877759325682353
1980000000               0.6193666016923012       -0.6545975037116346
2010000000               0.5466607070684075       -0.7138043029385357
2040000000               0.4686778774418938       -0.7649295633566005
2070000000               0.38629658569597525      -0.8077254886603401
2100000000               0.3001966576580342       -0.8419550135841529
2130000000               0.21106101639999297      -0.86720209649959
2.16E9                   0.11980393850683219      -0.8830181119185005
2.19E9                   0.027518489457283836     -0.8891341672473528
2.22E9                   -0.06466402380105354     -0.8854990418231066
2.25E9                   -0.15564344568045688     -0.8722367580569395
2.28E9                   -0.2443716759677974      -0.8496133037201276
2.31E9                   -0.329866070938047       -0.8180203758534335
2.34E9                   -0.4112284010389142      -0.7779611973980943
2.37E9                   -0.4876651216430166      -0.7300263233973588
2.4E9                    -0.5584964129457183      -0.6748568567677741
2.43E9                   -0.6231422734520011      -0.6131058299195757
2.46E9                   -0.6810873497245803      -0.5454175986296502
2.49E9                   -0.7318441041708222      -0.4724378089630042
2.52E9                   -0.7749375746552564      -0.3948453310301985
2.55E9                   -0.809918674294237       -0.3133832855371918
2.58E9                   -0.8363941070662515      -0.22887201239267352
2.61E9                   -0.8540563404622127      -0.14220240166724085
2.64E9                   -0.8627045612336597      -0.05431769600038938
2.67E9                   -0.8622561533524498      0.03380800034468014
2.7E9                    -0.8527521868682494      0.12119062085360435
2.73E9                   -0.8343601226392491      0.20685673620692652
2.76E9                   -0.8073742992643238      0.28986649946695114
2.79E9                   -0.7722108146215441      0.3693414454202168
2.82E9                   -0.7293895492786912      0.44449553752218124
2.85E9                   -0.6794967705238291      0.5146589047890208
2.88E9                   -0.6231336128270363      0.5792756829252629
2.91E9                   -0.5608758236001633      0.6378652994211255
2.94E9                   -0.49327483970905084     0.6899659600955774
2.97E9                   -0.4209007588425097      0.7351009974845156
3.0E9                    -0.3443923793689015      0.7727901653916045
3.03E9                   -0.26448110798505103     0.8025899715833756
3.06E9                   -0.18198437972904957     0.8241343842987423
3.09E9                   -0.09778245879811981     0.8371610100993737
3.12E9                   -0.012791694182051573    0.8415223700078542
3.15E9                   0.07205926758063334      0.8371870812204089
3.18E9                   0.1558484570727762       0.8242357060836485
3.21E9                   0.2376752633809817       0.8028545917997651
3.24E9                   0.3166722581339661       0.773329423576363
3.27E9                   0.39201558436167816      0.7360389321576822
3.3E9                    0.46293486702069075      0.6914484187808373
3.33E9                   0.5287230237585144       0.6401024147897347
3.36E9                   0.5887457981803443       0.5826157463271302
3.39E9                   0.6424503397046313       0.5196624646403579
3.42E9                   0.6893717713067162       0.45196253049009183
3.45E9                   0.7291365442862201       0.38026678722014706
3.48E9                   0.7614616273236557       0.3053414961331547
3.51E9                   0.7861492827951612       0.22795429246828772
3.54E9                   0.803078238914986        0.14886356094750522
3.57E9                   0.8121931839968181       0.06881272115501669
3.6E9                    0.8134952841366996       -0.011470275609769064
3.63E9                   0.8070364069801759       -0.09126958643289118
3.66E9                   0.7929185884712769       -0.16987713635777213
3.69E9                   0.7712981700333561       -0.24659072062622617
3.72E9                   0.7423919026760445       -0.32071689000560544
3.75E9                   0.7064814543459242       -0.39157859728224437
3.78E9                   0.6639137911806725       -0.4585252655892058
3.81E9                   0.6150972100245362       -0.5209420326837818
3.84E9                   0.5604949775511214       -0.5782558570867588
3.87E9                   0.5006193745368285       -0.6299382469662985
3.9E9                    0.4360281274433037       -0.6755063149604498
3.93E9                   0.367323382558015        -0.7145246029853098
3.96E9                   0.2951516996656173       -0.7466094063795843
3.99E9                   0.22020291627286231      -0.7714357936623556
4.02E9                   0.14320627169525046      -0.788746157345157
4.05E9                   0.0649233038410049       -0.7983585810102478
4.08E9                   -0.013861969651326512    -0.8001735629056927
4.11E9                   -0.09235457724554107     -0.7941782844123774
4.14E9                   -0.16976079870136013     -0.7804482332015035
4.17E9                   -0.24530025954654616     -0.7591463773722034
4.2E9                    -0.31821740391332415     -0.730520231637449
4.23E9                   -0.38779203699306564     -0.6948971504882557
4.26E9                   -0.4533487254836164      -0.652678127851727
4.29E9                   -0.5142648640612646      -0.6043303503936361
4.32E9                   -0.56997720954459        -0.5503787755483236
4.35E9                   -0.6199867051644893      -0.491397081299363
4.38E9                   -0.6638615027439101      -0.4279984274925928
4.41E9                   -0.7012382477885519      -0.36082652522280645
4.44E9                   -0.7318218918730467      -0.2905474822012927
4.47E9                   -0.7553844796612753      -0.2178427553136896
4.5E9                    -0.7717634590991344      -0.14340331551665564
4.53E9                   -0.7808600387360234      -0.06792487216023987
4.56E9                   -0.7826379630883908      0.007896211765177205
4.59E9                   -0.7771228360241104      0.08336679056622746
4.62E9                   -0.7644018635951473      0.15780103990023175
4.65E9                   -0.7446236887139985      0.23052508406622962
4.68E9                   -0.7179979093587465      0.30088220628865847
4.71E9                   -0.6847939286088623      0.36823847630091944
4.74E9                   -0.645338948346228       0.4319884848584685
4.77E9                   -0.6000151195409631      0.491560853142906
4.8E9                    -0.5492560217865491      0.5464232776969274
4.83E9                   -0.49354270915427545     0.5960870253133275
4.86E9                   -0.43339952033862617     0.6401109366497318
4.89E9                   -0.36938974270681674     0.6781050773419115
4.92E9                   -0.30211109695746324     0.7097341709822343
4.95E9                   -0.2321909209277352      0.7347208745818796
4.98E9                   -0.16028090517974025     0.7528488498066426
5.01E9                   -0.0870512721059102      0.7639654818577669
5.04E9                   -0.013184378539489217    0.7679840335173564
5.07E9                   0.060632167478745204     0.764885012506087
5.1E9                    0.13371268244352558      0.7547165792460394
5.13E9                   0.20538061647346934      0.7375939181652305
5.16E9                   0.27497552849416795      0.7136976135811304
5.19E9                   0.34185961471188464      0.6832711756974625
5.22E9                   0.40542367688485115      0.6466179189689556
5.25E9                   0.46509252385917094      0.6040973865889914
5.28E9                   0.520329873430433        0.5561214520033768
5.31E9                   0.5706428388502015       0.50315014603776
5.34E9                   0.6155860515200878       0.4456871953607259
5.37E9                   0.6547654166905318       0.38427523604781283
5.4E9                    0.6878414521499047       0.3194906819799888
5.43E9                   0.7145321371674016       0.2519382638951868
5.46E9                   0.734615201168958        0.1822452929969434
5.49E9                   0.7479298020095367       0.11105573209402063
5.52E9                   0.7543775749034695       0.03902417261566643
5.55E9                   0.7539230687896272       -0.03319018580901523
5.58E9                   0.7465936185872505       -0.10492947740965203
5.61E9                   0.7324787170138412       -0.17554299654485805
5.64E9                   0.7117289360745467       -0.24439291372573543
5.67E9                   0.684554404468927        -0.31085991211086084
5.7E9                    0.6512227914801884       -0.3743487600904074
5.73E9                   0.6120567144232695       -0.4342937782910243
5.76E9                   0.5674305039459416       -0.49016408577114734
5.79E9                   0.5177663287087281       -0.54146846256885
5.82E9                   0.46352976661351486      -0.5877596718062676
5.85E9                   0.4052249734004432       -0.6286381406874226
5.88E9                   0.3433896182366759       -0.6637549776136544
5.91E9                   0.2785897314630253       -0.6928143717367576
5.94E9                   0.21141455896839112      -0.7155754628838563
5.97E9                   0.14247145957667193      -0.7318537795155767
6.0E9                    0.0723808316792141       -0.741522324221894
