% Model:              three_layers reality at 0.1mm.mph
% Version:            COMSOL 5.6.0.280
% Date:               Mar 7 2022, 09:12
% Table:              表格 1 - 全局计算 1
% freq (Hz)              real(emw.S11) (1)        imag(emw.S11) (1)
300000000                0.5604605348108607       -0.7555188031090678
330000000                0.48887681516190384      -0.8021357091414345
360000000                0.4135831359516775       -0.8421061330651217
390000000                0.3351662343843252       -0.8751346775043158
420000000                0.25424176131707305      -0.9009757917283434
450000000                0.17144899868165916      -0.9194373588769965
480000000                0.08744541343493406      -0.9303835065183897
510000000                0.002901075066144898     -0.9337367196223912
540000000                -0.08150703515631648     -0.9294793045939506
570000000                -0.165100786067797       -0.9176542328853213
600000000                -0.24720669166156597     -0.8983653821626334
630000000                -0.32716169469548667     -0.8717771872344738
660000000                -0.40431889323060344     -0.8381137112017618
690000000                -0.4780531605980281      -0.7976571478062054
720000000                -0.5477666081855891      -0.7507457685254142
750000000                -0.6128938395745767      -0.6977713314433114
780000000                -0.6729069443544633      -0.6391759735179268
810000000                -0.727320180858516       -0.5754486128639494
840000000                -0.775694298893182       -0.5071208929118746
870000000                -0.8176404561854295      -0.4347627055491393
900000000                -0.8528236855537501      -0.35897733586959263
930000000                -0.8809658745462472      -0.2803962755164355
960000000                -0.9018482239800418      -0.19967375641278526
990000000                -0.9153131577222086      -0.1174810604073088
1020000000               -0.921265662354802       -0.03450066324384782
1050000000               -0.9196740420554109      0.048579726262999445
1080000000               -0.9105700810437537      0.1310731696053093
1110000000               -0.8940486131839684      0.21229948185916492
1140000000               -0.870266505509738       0.2915911327383918
1170000000               -0.8394410695387722      0.36829900449360975
1200000000               -0.8018479210822735      0.4417979482497059
1230000000               -0.7578183156226419      0.5114920835081332
1260000000               -0.7077359921804538      0.5768197895154108
1290000000               -0.6520335641397706      0.6372583414328326
1320000000               -0.5911884995490606      0.6923281502351002
1350000000               -0.5257187377227738      0.74159657003908
1380000000               -0.45617799158795447     0.7846812430938683
1410000000               -0.38315078750217363     0.8212529585857493
1440000000               -0.3072472954823597      0.8510380077118231
1470000000               -0.22909800341046457     0.8738200235596779
1500000000               -0.1493482882601958      0.8894413004462183
1530000000               -0.06865293676466191     0.8978035929551027
1560000000               0.012329334188427233     0.898868400439021
1590000000               0.09294130873764406      0.8926567475337589
1620000000               0.17253260928452063      0.8792484758314822
1650000000               0.25046489695141755      0.8587810657362284
1680000000               0.326116895863591        0.8314480109544743
1710000000               0.3988892053752935       0.7974967709546065
1740000000               0.4682088678537799       0.7572263290903658
1770000000               0.5335336634280967       0.7109843859048919
1800000000               0.5943561065610823       0.6591642185612174
1830000000               0.6502071229948488       0.6022012382619573
1860000000               0.7006593888879262       0.5405692781560966
1890000000               0.7453303173467174       0.4747766444915549
1920000000               0.7838846806890083       0.40536196370872074
1950000000               0.8160368597843632       0.332889857962843
1980000000               0.8415527148765393       0.2579464808800979
2010000000               0.8602510751677901       0.1811349445395123
2040000000               0.8720048474595213       0.1030706671102044
2070000000               0.8767417469803708       0.02437666824303797
2100000000               0.8744446559013153       -0.05432116420634751
2130000000               0.8651516161489614       -0.132398818134124
2.16E9                   0.8489554610621263       -0.20923890129226158
2.19E9                   0.8260030821545418       -0.2842353836718539
2.22E9                   0.7964943089914946       -0.35679834146565864
2.25E9                   0.7606803501883033       -0.42635869809933463
2.28E9                   0.7188617096549987       -0.4923729205797188
2.31E9                   0.6713854825362433       -0.5543275502381809
2.34E9                   0.6186419985646083       -0.6117433428573866
2.37E9                   0.561060950909933        -0.6641787403689304
2.4E9                    0.49910736649645354      -0.7112325103110163
2.43E9                   0.43327785450247147      -0.7525456965588616
2.46E9                   0.36409734896502927      -0.7878033358427459
2.49E9                   0.2921161384517696       -0.8167364158129606
2.52E9                   0.2179066952789114       -0.8391242204374146
2.55E9                   0.1420599009664217       -0.8547968092684232
2.58E9                   0.06518058037205635      -0.8636372157758174
2.61E9                   -0.012117478032099706    -0.8655830562444345
2.64E9                   -0.089216757750415       -0.8606274393270728
2.67E9                   -0.16550130152388595     -0.8488192073081715
2.7E9                    -0.2403619327272084      -0.83026258981894
2.73E9                   -0.31320135650926506     -0.8051163436732414
2.76E9                   -0.3834391151301624      -0.7735924280296242
2.79E9                   -0.4505163786365982      -0.735954243315286
2.82E9                   -0.5139005486161018      -0.6925144507620087
2.85E9                   -0.5730896469451762      -0.6436323857902235
2.88E9                   -0.627616456968318       -0.5897110796501276
2.91E9                   -0.6770523817813219      -0.5311939075763562
2.94E9                   -0.7210109836381238      -0.4685608866438086
2.97E9                   -0.7591511695461538      -0.40232465150257196
3.0E9                    -0.7911799902888768      -0.3330261411434616
3.03E9                   -0.8168550233726513      -0.2612300343046647
3.06E9                   -0.8359863144759729      -0.18751997505869988
3.09E9                   -0.8484378567053276      -0.11249363333733071
3.12E9                   -0.8541285921677835      -0.036757647655911836
3.15E9                   -0.8530329259635357      0.03907750094556871
3.18E9                   -0.8451807484728223      0.11440263409446659
3.21E9                   -0.8306569675193325      0.18861499083759292
3.24E9                   -0.8096005574440555      0.26112326334445096
3.27E9                   -0.7822031371484832      0.33135250668059524
3.3E9                    -0.7487070935476843      0.3987488780267134
3.33E9                   -0.7094032706575648      0.4627841631007707
3.36E9                   -0.6646282478295018      0.5229600499014513
3.39E9                   -0.6147612334914481      0.5788121122862439
3.42E9                   -0.5602206037480238      0.6299134675920147
3.45E9                   -0.5014601183536673      0.675878074365517
3.48E9                   -0.43896485044297817     0.7163636380390459
3.51E9                   -0.37324687115210226     0.7510740946963687
3.54E9                   -0.30484073558926505     0.7797616468221601
3.57E9                   -0.23429882230219345     0.8022283303931493
3.6E9                    -0.16218658305466818     0.8183271005769459
3.63E9                   -0.08907776265087755     0.8279624330785341
3.66E9                   -0.015549648295889363    0.8310904490597983
3.69E9                   0.05782159517491508      0.8277185820121709
3.72E9                   0.13046545366615964      0.8179048139144808
3.75E9                   0.20182141224053646      0.8017565150713285
3.78E9                   0.2713430881354583       0.7794289277037848
3.81E9                   0.3385021219626969       0.7511233380304361
3.84E9                   0.40279181214663073      0.7170849845735292
3.87E9                   0.46373049148795237      0.677600749528875
3.9E9                    0.5208646587185702       0.6329966728979207
3.93E9                   0.5737718882521474       0.5836353148335423
3.96E9                   0.6220635431416487       0.5299129730186914
3.99E9                   0.665387307620831        0.4722567443735729
4.02E9                   0.7034295384545808       0.41112141018837217
4.05E9                   0.7359174141392177       0.34698612477444774
4.08E9                   0.7626208447368171       0.2803508993202381
4.11E9                   0.7833540974304025       0.21173289093800052
4.14E9                   0.7979770955348638       0.14166252587583084
4.17E9                   0.8063963596753294       0.07067950045362949
4.2E9                    0.8085655753117522       -6.712895068391161E-4
4.23E9                   0.8044857863560001       -0.07184384063950017
4.26E9                   0.7942052267017481       -0.14229511203820042
4.29E9                   0.7778188079871079       -0.21148904010393
4.32E9                   0.7554672825532833       -0.27890047494063686
4.35E9                   0.7273360968071945       -0.34401902208598334
4.38E9                   0.6936539445371555       -0.40635277611603926
4.41E9                   0.6546910248177525       -0.46543193124333926
4.44E9                   0.6107570067400712       -0.5208122500056119
4.47E9                   0.5621987040688264       -0.5720783662199134
4.5E9                    0.5093974665083423       -0.6188468944465245
4.53E9                   0.4527662996491175       -0.6607693160807439
4.56E9                   0.39274673184857783      -0.697534612308381
4.59E9                   0.3298054523049498       -0.7288716165509352
4.62E9                   0.2644307495062643       -0.754551063552475
4.65E9                   0.19712878236608855      -0.7743873182813479
4.68E9                   0.12841971650031922      -0.7882397745809232
4.71E9                   0.058833755428260484     -0.7960139190524869
4.74E9                   -0.011092908339849217    -0.7976620583675879
4.77E9                   -0.08082220211726626     -0.793183706954482
4.8E9                    -0.14981832334665005     -0.7826256273327405
4.83E9                   -0.21755191013579742     -0.766081509820804
4.86E9                   -0.2835042031682224      -0.7436912751445504
4.89E9                   -0.3471711600294873      -0.7156399852807771
4.92E9                   -0.4080674737172343      -0.6821563554223099
4.95E9                   -0.46573044152635856     -0.643510872012031
4.98E9                   -0.5197236305134553      -0.6000135359006791
5.01E9                   -0.5696402914654501      -0.5520112631054165
5.04E9                   -0.6151064840958165      -0.4998849858825607
5.07E9                   -0.655783890295134       -0.4440465017120825
5.1E9                    -0.6913723068712415      -0.38493511601940134
5.13E9                   -0.7216118207987314      -0.32301411582383077
5.16E9                   -0.7462846745016705      -0.25876709836714834
5.19E9                   -0.7652168239130324      -0.1926941660357524
5.22E9                   -0.7782791793142901      -0.12530799283535873
5.25E9                   -0.7853885042175972      -0.05712977304706016
5.28E9                   -0.7865079393102063      0.011314921269776323
5.31E9                   -0.7816471230801709      0.0795003270499428
5.34E9                   -0.7708618982886324      0.14690466001930153
5.37E9                   -0.7542536169678599      0.2130142049838235
5.4E9                    -0.7319680762264849      0.27732727638169236
5.43E9                   -0.7041941254823041      0.33935801878670624
5.46E9                   -0.6711619815603544      0.39864003588285474
5.49E9                   -0.6331412755508694      0.45472984744542444
5.52E9                   -0.5904388408220569      0.5072101750381209
5.55E9                   -0.5433962405356327      0.5556930499941716
5.58E9                   -0.4923870284447605      0.5998227254219731
5.61E9                   -0.43781373926625416     0.6392783611475352
5.64E9                   -0.3801046143004583      0.6737764395030217
5.67E9                   -0.3197100830217183      0.703072863627008
5.7E9                    -0.25709904019356017     0.7269646912591335
5.73E9                   -0.1927549765527303      0.7452914683789685
5.76E9                   -0.12717203274365368     0.7579361483019441
5.79E9                   -0.06085104488567819     0.7648256077397406
5.82E9                   0.0057043654677725545    0.7659307924149784
5.85E9                   0.07199162823263609      0.7612665323640707
5.88E9                   0.1375129811197656       0.7508910589628441
5.91E9                   0.2017791472437388       0.73490523828751
5.94E9                   0.26431293171584985      0.7134515190323087
5.97E9                   0.3246527222369217       0.6867125852896985
6.0E9                    0.38235586537653427      0.6549097065972214
