% Model:              three_layers reality at 0.1mm.mph
% Version:            COMSOL 5.6.0.280
% Date:               Mar 8 2022, 20:03
% Table:              表格 1 - 全局计算 1
% freq (Hz)              real(emw.S11) (1)        imag(emw.S11) (1)
300000000                0.6163342383795097       -0.7453029631828757
330000000                0.5492264418978131       -0.7955416126859753
360000000                0.47813361814877225      -0.8398092591084918
390000000                0.4035726889671427       -0.8777889781199456
420000000                0.32609153608412317      -0.9092068110399247
450000000                0.24625878385418432      -0.9338378578124491
480000000                0.16466180425956553      -0.9515065110239308
510000000                0.08190209783364732      -0.9620880858570028
540000000                -0.0014093817898103824   -0.9655099943252927
570000000                -0.08465693578184563     -0.9617524756647967
600000000                -0.16722484078906846     -0.9508488930386427
630000000                -0.24850205368784747     -0.932885603191008
660000000                -0.3278868712717487      -0.9080014058398151
690000000                -0.4047915144909466      -0.8763865803437568
720000000                -0.4786466027182331      -0.8382815192711981
750000000                -0.5489054882792107      -0.7939749699437136
780000000                -0.6150484161112767      -0.743801898893898
810000000                -0.6765864793158322      -0.6881409950375827
840000000                -0.7330653385450537      -0.6274118315923117
870000000                -0.7840686766024332      -0.5620717086716114
900000000                -0.8292213611644634      -0.4926122012174178
930000000                -0.8681922901952105      -0.41955543947228846
960000000                -0.9006968979385168      -0.3434501505886588
990000000                -0.926499300344048       -0.2648674945521552
1020000000               -0.9454140642476697      -0.18439672491908587
1050000000               -0.9573075848502974      -0.10264071165211841
1080000000               -0.9620990616009035      -0.020211359942648915
1110000000               -0.9597610645603833      0.06227503721443009
1140000000               -0.9503196873533861      0.1442024760285591
1170000000               -0.9338542860627345      0.22495991099224885
1200000000               -0.9104968070234336      0.3039458782363328
1230000000               -0.8804307098774674      0.3805730374308921
1260000000               -0.8438894955129874      0.45427259545987053
1290000000               -0.8011548520735063      0.5244985772903616
1320000000               -0.7525544347939692      0.5907319112576715
1350000000               -0.6984592991649825      0.6524842962954156
1380000000               -0.6392810086906886      0.7093018227001835
1410000000               -0.5754684419739714      0.7607683181735851
1440000000               -0.5075043253115038      0.8065083951675223
1470000000               -0.4359015196064884      0.8461901768932818
1500000000               -0.3611990916311818      0.8795276830424389
1530000000               -0.2839582012539183      0.9062828587175407
1560000000               -0.20475783773951406     0.9262672331046957
1590000000               -0.12419043829774559     0.9393431978329496
1620000000               -0.0428574231485662      0.9454248976524554
1650000000               0.03863531837484189      0.944478729334292
1680000000               0.1196819566352648       0.9365234477500437
1710000000               0.19968123119542938      0.9216298809847511
1740000000               0.27804090754378985      0.8999202593820673
1770000000               0.3541821488821107       0.8715671659927402
1800000000               0.42754377034996305      0.8367921189219694
1830000000               0.49758634650203426      0.7958637981797009
1860000000               0.5637961419721157       0.7490959325107339
1890000000               0.6256888387570911       0.6968448634506206
1920000000               0.6828130338598293       0.639506806362879
1950000000               0.734753483814388        0.5775148297995303
1980000000               0.781134074245907        0.5113355763211315
2010000000               0.8216204945708786       0.44146574963902013
2040000000               0.8559226004076838       0.3684283941426273
2070000000               0.8837964484172226       0.29276899393045247
2100000000               0.9050459903787633       0.21505141990899868
2130000000               0.9195244160080425       0.13585375402780264
2.16E9                   0.9271351362275042       0.05576402023566856
2.19E9                   0.9278324010333802       -0.024624147400034834
2.22E9                   0.9216215485913903       -0.10471586888931657
2.25E9                   0.9085588846699466       -0.18391938441823175
2.28E9                   0.888751193930252        -0.2616503916604129
2.31E9                   0.8623548869508781       -0.33733632457779333
2.34E9                   0.8295747892577006       -0.410420543765146
2.37E9                   0.7906625805185407       -0.48036641016357695
2.4E9                    0.7459148940617801       -0.5466612139347152
2.43E9                   0.6956710880602647       -0.6088199317427526
2.46E9                   0.6403107009118035       -0.666388785641901
2.49E9                   0.5802506043270749       -0.7189485761976655
2.52E9                   0.5159418699358123       -0.766117760488691
2.55E9                   0.44786637008288893      -0.8075552430953675
2.58E9                   0.3765331427032294       -0.8429628475895007
2.61E9                   0.3024745611723539       -0.8720874421584544
2.64E9                   0.22624235815133886      -0.894722707278001
2.67E9                   0.1484035480309629       -0.9107105525652414
2.7E9                    0.06953627501119915      -0.9199422010560836
2.73E9                   -0.009774406759304988    -0.9223589528055662
2.76E9                   -0.08894082085968301     -0.9179526195120987
2.79E9                   -0.16737701248671685     -0.9067656049981173
2.82E9                   -0.24450311653665802     -0.8888906045252837
2.85E9                   -0.3197497038398545      -0.8644699081330173
2.88E9                   -0.3925620559471356      -0.8336943090908264
2.91E9                   -0.462404325514565       -0.7968016297547749
2.94E9                   -0.5287635447702392      -0.7540748828628391
2.97E9                   -0.591153451096242       -0.705840087891211
3.0E9                    -0.6491181017340613      -0.6524637626670065
3.03E9                   -0.7022352516956745      -0.594350111003614
3.06E9                   -0.7501194701190772      -0.5319379286928589
3.09E9                   -0.7924249722814072      -0.46569725146328533
3.12E9                   -0.8288481455918721      -0.3961257711114925
3.15E9                   -0.8591297507541752      -0.3237450471314171
3.18E9                   -0.8830567809895096      -0.24909654390528885
3.21E9                   -0.9004639656460773      -0.17273752396426004
3.24E9                   -0.9112349067643746      -0.09523683015646152
3.27E9                   -0.9153028407104321      -0.017170589448657833
3.3E9                    -0.9126510197506207      0.06088212737966912
3.33E9                   -0.9033127117981619      0.13834365653966804
3.36E9                   -0.8873708195723546      0.2146420681212593
3.39E9                   -0.8649571235940974      0.2892154355225384
3.42E9                   -0.8362511564703077      0.3615160144269156
3.45E9                   -0.801478718858021       0.4310142990975222
3.48E9                   -0.7609100504519972      0.4972029249877499
3.51E9                   -0.7148576719064796      0.5596003883353572
3.54E9                   -0.6636739163513232      0.6177545547879102
3.57E9                   -0.6077481713427874      0.6712459313493584
3.6E9                    -0.5475038543806239      0.7196906779113197
3.63E9                   -0.4833951470345362      0.762743337004359
3.66E9                   -0.4159035142101637      0.8000992630666585
3.69E9                   -0.3455340366967763      0.8314967349242626
3.72E9                   -0.2728115858706479      0.8567187381122698
3.75E9                   -0.19827687045831352     0.8755944061426825
3.78E9                   -0.12248238556520814     0.8880001126163715
3.81E9                   -0.04598829450125095     0.8938602085612463
3.84E9                   0.0306417257381046       0.8931474018475442
3.87E9                   0.10684464465384434      0.88588277807672
3.9E9                    0.18206221320665128      0.872135464770426
3.93E9                   0.25574504287203653      0.8520219433790545
3.96E9                   0.3273565984335431       0.8257050163969146
3.99E9                   0.3963770750195657       0.7933924398122518
4.02E9                   0.462307130627978        0.7553352342129741
4.05E9                   0.5246714479659069       0.7118256905187343
4.08E9                   0.5830221008861959       0.6631950890230128
4.11E9                   0.6369417042784712       0.6098111518384008
4.14E9                   0.686046328289347        0.5520752501052432
4.17E9                   0.7299881605772175       0.49041938728509066
4.2E9                    0.768457901540561        0.4253029801621849
4.23E9                   0.8011868786582277       0.3572094594296035
4.26E9                   0.8279488669800131       0.286642712573078
4.29E9                   0.8485616040298591       0.21412339313273582
4.32E9                   0.8628879891951897       0.14018512200956457
4.35E9                   0.870836960277114        0.06537060723915479
4.38E9                   0.8723640423394627       -0.009772290775825466
4.41E9                   0.8674715663819854       -0.08469452192262303
4.44E9                   0.8562085571785236       -0.15884981067152826
4.47E9                   0.8386702909904504       -0.23169859606855303
4.5E9                    0.8149975252287096       -0.30271192119405876
4.53E9                   0.78537540375928         -0.3713752455017366
4.56E9                   0.750032043608189        -0.4371921530001605
4.59E9                   0.7092368114780876       -0.4996879288471634
4.62E9                   0.663298301359114        -0.5584129773101529
4.65E9                   0.6125620274745103       -0.612946055032352
4.68E9                   0.5574078496463788       -0.6628972948877734
4.71E9                   0.4982471507026016       -0.7079109977439481
4.74E9                   0.43551978733924773      -0.7476681719666431
4.77E9                   0.3696908375005613       -0.7818888026821673
4.8E9                    0.3012471681518051       -0.8103338353523363
4.83E9                   0.23069384788669822      -0.8328068602402592
4.86E9                   0.15855042951211296      -0.8491554859836287
4.89E9                   0.08534712828261846      -0.8592723921492431
4.92E9                   0.011620922751447084     -0.8630960520899814
4.95E9                   -0.062088394123898286    -0.8606111194581584
4.98E9                   -0.13524218443188296     -0.8518484738404022
5.01E9                   -0.20730692553335794     -0.8368849236769432
5.04E9                   -0.2777581306504439      -0.8158425674923834
5.07E9                   -0.34608419936067314     -0.7888878175140921
5.1E9                    -0.41179016786883155     -0.7562300928219267
5.13E9                   -0.4744013295189947      -0.7181201923574532
5.16E9                   -0.5334666976323628      -0.6748483609949374
5.19E9                   -0.5885622840882363      -0.6267420647547293
5.22E9                   -0.6392941695772965      -0.5741634933184376
5.25E9                   -0.6853013434282146      -0.5175068097794554
5.28E9                   -0.7262582931381251      -0.4571951685366977
5.31E9                   -0.7618773250945146      -0.39367752329768707
5.34E9                   -0.79191059927399        -0.3274252483171123
5.37E9                   -0.8161518619627706      -0.2589285975168858
5.4E9                    -0.8344378620351952      -0.18869302850893718
5.43E9                   -0.8466494389155316      -0.11723542049557766
5.46E9                   -0.8527122734551323      -0.04508021672381425
5.49E9                   -0.8525972964912589      0.027244476527237223
5.52E9                   -0.8463207536857977      0.09921080245253538
5.55E9                   -0.8339439288370152      0.17029504580755186
5.58E9                   -0.8155725313515845      0.23998147390362023
5.61E9                   -0.7913557566204128      0.30776609727808846
5.64E9                   -0.7614850305869296      0.3731603228219311
5.67E9                   -0.7261924515163258      0.43569447454895793
5.7E9                    -0.6857489429073518      0.4949211590301803
5.73E9                   -0.640462131787829       0.5504184539363459
5.76E9                   -0.5906739671139903      0.6017928983019069
5.79E9                   -0.5367580944984408      0.6486822626596629
5.82E9                   -0.4791170064738361      0.6907580770053153
5.85E9                   -0.4181789912566988      0.7277278959982755
5.88E9                   -0.35439490667957774     0.7593372838622041
5.91E9                   -0.2882348080597251      0.7853715060154122
5.94E9                   -0.22018445886867186     0.8056569191832562
5.97E9                   -0.15074175208013474     0.8200620553029062
6.0E9                    -0.08041306826485393     0.8284983970437196
