% Model:              three_layers reality at 0.1mm.mph
% Version:            COMSOL 5.6.0.280
% Date:               Mar 8 2022, 20:05
% Table:              表格 1 - 全局计算 1
% freq (Hz)              real(emw.S11) (1)        imag(emw.S11) (1)
300000000                0.6163928545158996       -0.7452656661663745
330000000                0.5492256409568136       -0.7955419998547497
360000000                0.4781286664271507       -0.8398116223725558
390000000                0.40356756374680175      -0.8777908211630143
420000000                0.32608628428181863      -0.909208137394718
450000000                0.246253174608216        -0.9338387252139614
480000000                0.16465587924431413      -0.9515068728450841
510000000                0.08189590351093337      -0.9620878985821156
540000000                -0.001415793910687846    -0.9655092180781661
570000000                -0.08466350922822025     -0.9617510749269255
600000000                -0.16723151491708743     -0.9508468372617278
630000000                -0.24850876369519848     -0.9328828673740885
660000000                -0.32789354896514455     -0.9079979710597046
690000000                -0.40479808859089994     -0.8763824342261121
720000000                -0.47865299975200126     -0.8382766563475514
750000000                -0.5489116327848484      -0.7939693922372713
780000000                -0.6150542318407327      -0.743795615960628
810000000                -0.6765918899128185      -0.6881340241685279
840000000                -0.7330702681774046      -0.6274041980520876
870000000                -0.7840730507862294      -0.5620634458051332
900000000                -0.8292251076833316      -0.4926033502723445
930000000                -0.8681953399713045      -0.41954604937431084
960000000                -0.9006991857014892      -0.34344027803970534
990000000                -0.9265007656160655      -0.26485720328251244
1020000000               -0.9454146519432491      -0.18438608577270688
1050000000               -0.9573072461651505      -0.10262980173737478
1080000000               -0.9620977546657218      -0.020200262184097574
1110000000               -0.9597587550778917      0.06228623461698493
1140000000               -0.9503163492040397      0.14421368050790823
1170000000               -0.9338499018272947      0.22497102612496778
1200000000               -0.9104913684234957      0.3039568048152874
1230000000               -0.8804242181572705      0.3805836741805579
1260000000               -0.8438819617269765      0.4542828399935614
1290000000               -0.8011462972567351      0.5245083271148672
1320000000               -0.7525448900507383      0.5907410647451415
1350000000               -0.6984488056757687      0.6524927536665426
1380000000               -0.6392696176683887      0.7093094869431247
1410000000               -0.5754562143724777      0.760775096172762
1440000000               -0.507491331642348       0.8065141985549563
1470000000               -0.43588783944802567     0.8461949231041515
1500000000               -0.3611848131241995      0.8795312962199461
1530000000               -0.2839434206627902      0.906285270517938
1560000000               -0.20474265865332095     0.9262683835979874
1590000000               -0.12417497094150037     0.9393430362350004
1620000000               -0.042841783523818046    0.9454233830447457
1650000000               0.03865100939965025      0.9444758312613031
1680000000               0.11969757423168091      0.9365191467613379
1710000000               0.1996966476303449       0.9216241690892115
1740000000               0.27805599324337626      0.8999131403896611
1770000000               0.3541967735116064       0.8715586557774551
1800000000               0.4275578040174775       0.8367822455495668
1830000000               0.49759966078575285      0.7958526019863935
1860000000               0.5638086111740501       0.7490834660172933
1890000000               0.6257003410751936       0.6968311911603012
1920000000               0.6828234524420517       0.6394920045509427
1950000000               0.734762707994004        0.5774989860393467
1980000000               0.7811420005832592       0.511318789021886
2010000000               0.8216270279202146       0.4414481274476728
2040000000               0.855927654944988        0.36841005519811976
2070000000               0.8837999485621382       0.2927500650821429
2100000000               0.9050478716932653       0.2150320358144685
2130000000               0.9195246259933882       0.13583405616032385
2.16E9                   0.92713363504696         0.05574415579068146
2.19E9                   0.9278291621314708       -0.024644026608380595
2.22E9                   0.921616559222041        -0.10473560772864184
2.25E9                   0.9085521463095866       -0.18393882564879593
2.28E9                   0.8887427225775348       -0.2616693773045258
2.31E9                   0.8623447133324611       -0.3373546972578476
2.34E9                   0.8295629588608066       -0.4104381482228573
2.37E9                   0.7906491535575363       -0.4803830946671237
2.4E9                    0.7458999452610986       -0.546676831824481
2.43E9                   0.6956547062616512       -0.6088343430657938
2.46E9                   0.6402929884808771       -0.666401858797923
2.49E9                   0.5802316761990177       -0.7189601896768871
2.52E9                   0.5159218521714156       -0.7661278045620004
2.55E9                   0.4478453978607426       -0.8075636211735473
2.58E9                   0.3765113578041792       -0.8429694768630986
2.61E9                   0.3024521093264193       -0.8720922531401074
2.64E9                   0.22621938705856692      -0.8947256421329283
2.67E9                   0.14838020688087425      -0.9107115627862191
2.7E9                    0.06951271565144204      -0.9199412456358828
2.73E9                   -0.009798027552195877    -0.9223559979159339
2.76E9                   -0.08896433933248603     -0.9179476400677846
2.79E9                   -0.1674002570689929      -0.9067585874941992
2.82E9                   -0.24452590862362344     -0.8888815501852267
2.85E9                   -0.31977185986327217     -0.8644588355025905
2.88E9                   -0.3925833902456969      -0.8336812556710674
2.91E9                   -0.46242465339592115     -0.7967866526241316
2.94E9                   -0.5287826853928752      -0.754058058520977
2.97E9                   -0.5911712300138785      -0.7058215115785025
3.0E9                    -0.6491343530972974      -0.652443547331991
3.03E9                   -0.702249820119217       -0.5943283860974251
3.06E9                   -0.7501322123116454      -0.531914838814379
3.09E9                   -0.7924357584000302      -0.46567295499307043
3.12E9                   -0.8288568604694145      -0.39610043873874873
3.15E9                   -0.8591362949057123      -0.32371886042155223
3.18E9                   -0.8830610715681815      -0.24906969368675125
3.21E9                   -0.9004659371745674      -0.17271020882593113
3.24E9                   -0.9112345117895979      -0.09520925478166646
3.27E9                   -0.9153000502966098      -0.01714296301120417
3.3E9                    -0.9126458238521646      0.060909592949943615
3.33E9                   -0.9033051194804319      0.1383707482241849
3.36E9                   -0.8873608590905007      0.2146685735652929
3.39E9                   -0.8649448423099394      0.28924114481693936
3.42E9                   -0.8362366206151398      0.36154072180512
3.45E9                   -0.8014620131537845      0.431037804640405
3.48E9                   -0.7608912775348359      0.4972250363454885
3.51E9                   -0.7148369516450532      0.5596209223102424
3.54E9                   -0.663651384959176       0.6177733389299589
3.57E9                   -0.6077239803964868      0.6712628054047606
3.6E9                    -0.5474781696680865      0.7197054952156257
3.63E9                   -0.48336814729513655     0.7627559657456137
3.66E9                   -0.4158753897911316      0.8001095874208297
3.69E9                   -0.3455049880310843      0.8315046561132882
3.72E9                   -0.27278182195145234     0.8567241752651678
3.75E9                   -0.1982466071472347      0.8755972970701484
3.78E9                   -0.12245184387554603     0.8880004143980273
3.81E9                   -0.04595769877426044     0.8938578979807064
3.84E9                   0.030672149686301966     0.893142475638717
3.87E9                   0.10687467146044138      0.8858752529692252
3.9E9                    0.18209161985364164      0.8721253773062388
3.93E9                   0.25577361060691217      0.8520093494968148
3.96E9                   0.3273841145478864       0.825689990781755
3.99E9                   0.3964033345445705       0.793375075011978
4.02E9                   0.46233193785620746      0.7553156395463696
4.05E9                   0.5246946176994755       0.7118039908571935
4.08E9                   0.5830434594615829       0.6631714234892585
4.11E9                   0.6369610903319853       0.6097856725127209
4.14E9                   0.6860635933205185       0.5520481208016225
4.17E9                   0.7300031693455566       0.4903907824571958
4.2E9                    0.7684705323854204       0.42527308396183844
4.23E9                   0.8011970238027637       0.35717846489823407
4.26E9                   0.8279564328817444       0.28661082094169504
4.29E9                   0.8485665117966144       0.21409081322600643
4.32E9                   0.862890175138076        0.14015206963648214
4.35E9                   0.8708363765773612       0.06533730460408534
4.38E9                   0.8723606578706438       -0.009805615777659106
4.41E9                   0.867465367663371        -0.08472763654435947
4.44E9                   0.8561995494155976       -0.1588824784149319
4.47E9                   0.8386584991225832       -0.23173057806611844
4.5E9                    0.8149829948834999       -0.3027429779080964
4.53E9                   0.7853582019947485       -0.3714051387489186
4.56E9                   0.7500122593383296       -0.4372206482213475
4.59E9                   0.7092145555302246       -0.49971479749529446
4.62E9                   0.6632737061292634       -0.5584379992981944
4.65E9                   0.6125352461918372       -0.612969021112249
4.68E9                   0.5573790553464931       -0.6629180088393
4.71E9                   0.4982165348723648       -0.707929278443201
4.74E9                   0.43548755842747866      -0.7476838551678334
4.77E9                   0.3696572192639245       -0.781901742623832
4.8E9                    0.30121239788860454      -0.810343906177879
4.83E9                   0.2306581745977578       -0.8328139572417117
4.86E9                   0.15851411194312598      -0.8491595267002672
4.89E9                   0.0853104328833073       -0.8592733172968292
4.92E9                   0.011584121505722855     -0.8630938263172974
4.95E9                   -0.06212502594420535     -0.8606057318914959
4.98E9                   -0.13527837062621179     -0.8518399383895545
5.01E9                   -0.20734239129280665     -0.8368732790908805
5.04E9                   -0.27779260496373076     -0.8158278771458598
5.07E9                   -0.3461174173009077      -0.7888701689449606
5.1E9                    -0.4118218728310991      -0.7562095970168836
5.13E9                   -0.47443127532368523     -0.7180969828302728
5.16E9                   -0.5334946504991023      -0.674822592678921
5.19E9                   -0.5885880244240234      -0.6267139127723714
5.22E9                   -0.6393174936835695      -0.5741331516131011
5.25E9                   -0.6853220650493947      -0.5174744896685914
5.28E9                   -0.7262762449312213      -0.45716109714576914
5.31E9                   -0.761892359985402       -0.3936419418936447
5.34E9                   -0.7919225917190658      -0.32738841048522715
5.37E9                   -0.816160709065751       -0.2588907671559891
5.4E9                    -0.8344434844528155      -0.18865447771174232
5.43E9                   -0.8466517815341318      -0.11719642724127087
5.46E9                   -0.8527113057631333      -0.045041062540730814
5.49E9                   -0.8525930126539036      0.027283508953012667
5.52E9                   -0.8463131723050291      0.09924943157884934
5.55E9                   -0.8339330924413262      0.17033299344519393
5.58E9                   -0.8155585056616609      0.24001846722789552
5.61E9                   -0.7913386296746492      0.3078018706102731
5.64E9                   -0.7614649117952018      0.3731946192534998
5.67E9                   -0.7261694707160378      0.4357270473775363
5.7E9                    -0.6857232494404347      0.49495177312822575
5.73E9                   -0.6404338935692313      0.5504468871074515
5.76E9                   -0.5906433696359946      0.6018189426615057
5.79E9                   -0.536725339702997       0.6487057259968436
5.82E9                   -0.4790823114069874      0.6907787841232189
5.85E9                   -0.4181425865860134      0.7277456898487475
5.88E9                   -0.3543570350736756      0.7593520264915168
5.91E9                   -0.28819572257527054     0.7853830792560711
5.94E9                   -0.220144421383608       0.8056652251735829
5.97E9                   -0.15070103189314513     0.820067016873296
6.0E9                    -0.08037194074668932     0.8284999581166009
