% Model:              three_layers reality at 0.1mm.mph
% Version:            COMSOL 5.6.0.280
% Date:               Mar 11 2022, 11:03
% Table:              表格 1 - 全局计算 1
% freq (Hz)              real(emw.S11) (1)        imag(emw.S11) (1)
300000000                0.5647890406418988       -0.7620363815179942
330000000                0.492280132105716        -0.8093237988093007
360000000                0.4159766324410189       -0.8498191680083296
390000000                0.33648707438784786      -0.8832221841862872
420000000                0.2544479509557755       -0.9092842148335258
450000000                0.17051889128502895      -0.9278118733115879
480000000                0.0853772511752215       -0.9386699069284022
510000000                -2.875354765789595E-4    -0.9417833593879289
540000000                -0.08577976865388415     -0.9371390498336725
570000000                -0.17040340044507316     -0.9247863974549289
600000000                -0.25346800459939        -0.9048376108711434
630000000                -0.3342947433274601      -0.8774672558805906
660000000                -0.41222227668706257     -0.8429112135456619
690000000                -0.4866125583563499      -0.8014650418735851
720000000                -0.5568564628097397      -0.7534817563338689
750000000                -0.6223791865231185      -0.6993690492964347
780000000                -0.6826453681933113      -0.6395859727649293
810000000                -0.7371638746251451      -0.5746391139442245
840000000                -0.7854921997788751      -0.505078299229592
870000000                -0.8272404294722867      -0.43149186717961846
900000000                -0.862074726751449       -0.35450155738407463
930000000                -0.8897202990634799      -0.2747570659277862
960000000                -0.9099638136612767      -0.19293032313457756
990000000                -0.9226552333371081      -0.10970955375576155
1020000000               -0.9277090526293613      -0.0257931812672894
1050000000               -0.9251049208390131      0.0581163582205876
1080000000               -0.9148876464590798      0.14131882745769783
1110000000               -0.8971665849747184      0.22312235868374622
1140000000               -0.8721144196459074      0.30284951830620127
1170000000               -0.8399653524173074      0.3798432025759101
1200000000               -0.801012728999738       0.4534723040916336
1230000000               -0.7556061291913494      0.5231370916296711
1260000000               -0.7041479588716133      0.5882742521965579
1290000000               -0.6470895861016241      0.6483615471780229
1320000000               -0.5849270676989375      0.702922041936531
1350000000               -0.5181965167618384      0.7515278731806658
1380000000               -0.4474691640663741      0.7938035255073642
1410000000               -0.37334616835993484     0.8294285948338871
1440000000               -0.2964532314187574      0.8581400230672014
1470000000               -0.21743507411626137     0.8797337948027064
1500000000               -0.13694982876837455     0.8940660932415558
1530000000               -0.055663401830148555    0.9010539182396686
1560000000               0.025756140706646138     0.9006751749641584
1590000000               0.10664411612557388      0.8929682467459046
1620000000               0.18634464936941664      0.8780310700377909
1650000000               0.2642159358953002       0.8560197333775016
1680000000               0.33963530353944016      0.8271466255944246
1710000000               0.4120040380576514       0.7916781611069339
1740000000               0.48075193993593524      0.7499321126545044
1770000000               0.5453415854399642       0.7022745828882755
1800000000               0.6052722667210614       0.649116648263882
1830000000               0.6600835913695016       0.5909107084296802
1860000000               0.7093587238226707       0.528146575428858
1890000000               0.7527272548060012       0.4613473368524388
1920000000               0.7898676882838072       0.39106502641518204
1950000000               0.8205095374372416       0.31787613576769314
1980000000               0.8444350242813748       0.24237700017131042
2010000000               0.8614803796242136       0.1651790900910522
2040000000               0.8715367419554703       0.08690424054469283
2070000000               0.8745506561447396       0.008179848440490595
2100000000               0.8705241742361619       -0.07036593177674759
2130000000               0.8595145625818752       -0.1481089650188873
2.16E9                   0.8416336209723476       -0.22443385685552988
2.19E9                   0.8170466212260536       -0.29873859088806204
2.22E9                   0.7859708741069519       -0.3704390561490386
2.25E9                   0.7486739350235632       -0.4389734386989328
2.28E9                   0.7054714602716281       -0.5038064533706814
2.31E9                   0.6567247262823532       -0.5644333937393624
2.34E9                   0.6028378241285811       -0.6203839805709459
2.37E9                   0.5442545396043332       -0.6712259912386209
2.4E9                    0.4814549248012048       -0.7165686536118567
2.43E9                   0.4149515590459567       -0.7560657858494494
2.46E9                   0.345285489019483        -0.7894186525645348
2.49E9                   0.2730218318869561       -0.8163784868825671
2.52E9                   0.19874503723616518      -0.8367485928015107
2.55E9                   0.12305384535713469      -0.8503859073081732
2.58E9                   0.04655606178016996      -0.857201894934375
2.61E9                   -0.03013663681884591     -0.8571627116503153
2.64E9                   -0.10641361104516155     -0.8502887227519077
2.67E9                   -0.18166972072745546     -0.8366536262519791
2.7E9                    -0.2553093970853219      -0.8163834887861781
2.73E9                   -0.32675058716311495     -0.7896558635339583
2.76E9                   -0.3954288635076331      -0.7566989082434366
2.79E9                   -0.46080183024957705     -0.7177902400202831
2.82E9                   -0.5223537371839757      -0.6732552629805213
2.85E9                   -0.5796000860382329      -0.6234648368715934
2.88E9                   -0.6320920099891589      -0.5688323018161686
2.91E9                   -0.6794202787173661      -0.5098099579807716
2.94E9                   -0.7212188558058297      -0.44688511727498326
2.97E9                   -0.7571679842589463      -0.38057582635704623
3.0E9                    -0.7869967969712257      -0.31142633503687
3.03E9                   -0.8104854531114901      -0.2400023659106233
3.06E9                   -0.8274667997604297      -0.16688623079397144
3.09E9                   -0.837827555578072       -0.09267183657667942
3.12E9                   -0.8415090129077619      -0.017959623271903827
3.15E9                   -0.8385072564399932      0.0566485215897343
3.18E9                   -0.8288728999110376      0.1305543267729309
3.21E9                   -0.8127103466754498      0.20316813332350378
3.24E9                   -0.7901765848826134      0.2739137766535602
3.27E9                   -0.7614795328920181      0.34223331061087725
3.3E9                    -0.7268759552235098      0.4075915308183888
3.33E9                   -0.6866689736937382      0.4694802574583308
3.36E9                   -0.6412052020726619      0.5274223411030375
3.39E9                   -0.5908715361973472      0.5809753581232181
3.42E9                   -0.5360916340963965      0.6297349666118036
3.45E9                   -0.47732212334306756     0.673337897302728
3.48E9                   -0.4150485748087789      0.7114645583514669
3.51E9                   -0.34978128339402786     0.7438412372767914
3.54E9                   -0.28205089768925795     0.7702418876305827
3.57E9                   -0.21240394073472235     0.7904894928679563
3.6E9                    -0.14139826426216404     0.8044570043977025
3.63E9                   -0.06959847795417051     0.8120678555844658
3.66E9                   0.002428606141678991     0.8132960579624614
3.69E9                   0.07411847617270961      0.8081658900510362
3.72E9                   0.14491333494925432      0.7967511925225043
3.75E9                   0.21426639473299913      0.7791742859136587
3.78E9                   0.2816460236559564       0.7556045283038766
3.81E9                   0.3465397175361732       0.7262565308388427
3.84E9                   0.40845787257943017      0.6913880488575571
3.87E9                   0.4669373340782098       0.6512975667643448
3.9E9                    0.5215446958584286       0.6063215961384256
3.93E9                   0.5718793243214677       0.5568317095651212
3.96E9                   0.6175760807294989       0.503231337749395
3.99E9                   0.6583077179124764       0.44595236364700314
4.02E9                   0.6937869328301876       0.3854515539571087
4.05E9                   0.7237680655444425       0.3222068728308252
4.08E9                   0.7480484463717446       0.2567137235673155
4.11E9                   0.7664694046208844       0.1894811589678348
4.14E9                   0.7789169600423368       0.12102809151540535
4.17E9                   0.7853222201048088       0.051879522051744204
4.2E9                    0.7856615012463163       -0.01743720465115028
4.23E9                   0.7799561833256488       -0.08639611380394553
4.26E9                   0.7682722979728269       -0.15447627856750767
4.29E9                   0.7507198475206018       -0.22116545032583185
4.32E9                   0.7274518529303716       -0.28596362315917007
4.35E9                   0.6986631344500704       -0.348386512036184
4.38E9                   0.6645888335879019       -0.4079689264293178
4.41E9                   0.6255026860947045       -0.4642680259450953
4.44E9                   0.5817150524574398       -0.5168664481397056
4.47E9                   0.5335707068643044       -0.5653752986003215
4.5E9                    0.48144638153471164      -0.609436988109216
4.53E9                   0.42574806289726386      -0.6487278943266651
4.56E9                   0.3669080407029638       -0.6829608177746076
4.59E9                   0.3053817195050055       -0.7118871971248919
4.62E9                   0.24164421201827918      -0.7352990482495869
4.65E9                   0.17618674340611273      -0.7530305951139139
4.68E9                   0.10951290307208623      -0.7649595675800175
4.71E9                   0.042134784535121386     -0.7710081503022098
4.74E9                   -0.02543094581248493     -0.7711435763002297
4.77E9                   -0.09266701365707278     -0.7653783666860772
4.8E9                    -0.15905950361783872     -0.7537702227936598
4.83E9                   -0.22410180202731064     -0.7364215779311376
4.86E9                   -0.28729849364858423     -0.7134788138216875
4.89E9                   -0.3481691905275585      -0.6851311434273312
4.92E9                   -0.4062522689109389      -0.651609159467565
4.95E9                   -0.46110848505254165     -0.613183048280102
4.98E9                   -0.5123244364932639      -0.5701604719401832
5.01E9                   -0.5595158321991891      -0.5228841271028276
5.04E9                   -0.6023305337925065      -0.47172899594743856
5.07E9                   -0.6404513313091931      -0.41709931171773373
5.1E9                    -0.6735984200630548      -0.3594252682459192
5.13E9                   -0.7015315501752579      -0.2991595091281407
5.16E9                   -0.7240518276404841      -0.23677343673558615
5.19E9                   -0.7410031542695621      -0.17275338343460114
5.22E9                   -0.7522733026849331      -0.107596685699741
5.25E9                   -0.7577946290071331      -0.04180769674164773
5.28E9                   -0.7575444281281435      0.02410623351107921
5.31E9                   -0.7515449340009875      0.08963878748164321
5.34E9                   -0.7398629623285347      0.1542886951443604
5.37E9                   -0.7226091891906735      0.2175637078131909
5.4E9                    -0.699937059775276       0.2789844953819732
5.43E9                   -0.6720413273881815      0.33808842440332415
5.46E9                   -0.6391562328568916      0.3944331707318653
5.49E9                   -0.6015533456315132      0.44760012103829167
5.52E9                   -0.5595390979786586      0.49719752274435997
5.55E9                   -0.5134520515652786      0.5428633496792299
5.58E9                   -0.4636599405206206      0.5842678610750401
5.61E9                   -0.4105565365651982      0.6211158426525979
5.64E9                   -0.35455837874299007     0.6531485300770852
5.67E9                   -0.2961014025080414      0.6801452242623548
5.7E9                    -0.2356374910081204      0.7019246120777602
5.73E9                   -0.17363095954487023     0.7183458019333552
5.76E9                   -0.1105549777282322      0.729309072359318
5.79E9                   -0.046887937865301946    0.7347563180133047
5.82E9                   0.01689020755976003      0.7346711698125579
5.85E9                   0.08030159874816417      0.7290787705000672
5.88E9                   0.1428740594494638       0.7180452032260243
5.91E9                   0.2041445742916942       0.7016765914690075
5.94E9                   0.2636626133343382       0.6801179045174022
5.97E9                   0.32099328225964285      0.653551508359643
6.0E9                    0.3757202920013285       0.6221954976113073
