% Model:              three_layers reality at 0.1mm.mph
% Version:            COMSOL 5.6.0.280
% Date:               Mar 11 2022, 11:07
% Table:              表格 1 - 全局计算 1
% freq (Hz)              real(emw.S11) (1)        imag(emw.S11) (1)
300000000                0.5649424254116502       -0.7620633847782525
330000000                0.49243771752940957      -0.8093776686687015
360000000                0.4161335701775185       -0.849900892223287
390000000                0.3366382137645273       -0.8833318881849612
420000000                0.25458829627435126      -0.9094211090107607
450000000                0.17064374332106028      -0.9279743416221348
480000000                0.08548231055049911      -0.9388556058004698
510000000                -2.0608733579798868E-4   -0.9419893181520926
540000000                -0.08572520626489039     -0.9373617713537465
570000000                -0.17037840711823762     -0.9250219578090939
600000000                -0.253474639042468       -0.9050817575256034
630000000                -0.3343344190106189      -0.8777155035286003
660000000                -0.41229575258862666     -0.8431589373572463
690000000                -0.48671994079843284     -0.8017075671802445
720000000                -0.5569972168053051      -0.7537144445881566
750000000                -0.6225521562536954      -0.6995873795971419
780000000                -0.6828488063166587      -0.6397856181665766
810000000                -0.7373954791764405      -0.5748160120422521
840000000                -0.7857491580548914      -0.5052287167451747
870000000                -0.8275194681644843      -0.4316124577726494
900000000                -0.8623721675740335      -0.3545894122801079
930000000                -0.8900321190307381      -0.27480975682384456
960000000                -0.9102857089551704      -0.19294593729563342
990000000                -0.9229826859848264      -0.10968672100990347
1020000000               -0.9280373989812244      -0.025731092811186657
1050000000               -0.9254294209772023      0.058217939586143776
1080000000               -0.9152035535317289      0.14145956516426134
1110000000               -0.8974692135404507      0.22330134833904963
1140000000               -0.872399212101462       0.3030653016177929
1170000000               -0.8402279427684411      0.38009378846562974
1200000000               -0.8012490030971547      0.45375519687071464
1230000000               -0.7558122806369205      0.5234493258813616
1260000000               -0.7043205401688555      0.58861243309639
1290000000               -0.6472255542971859      0.6487218962501732
1320000000               -0.585023824030489       0.7033004472242965
1350000000               -0.5182519401653772      0.7519199429572097
1380000000               -0.4474816379723441      0.7942046450133705
1410000000               -0.37331460083227647     0.8298339850392223
1440000000               -0.2963770684290807      0.8585448007505175
1470000000               -0.21731430591742307     0.8801330331748407
1500000000               -0.13678498969633407     0.8944548822772556
1530000000               -0.05545556338981346     0.9014274240997205
1560000000               0.02600538295659831      0.9010286977293224
1590000000               0.10693266166805362      0.8932972758976852
1620000000               0.18666991753629247      0.8783313370734502
1650000000               0.2645748957498194       0.8562872610472518
1680000000               0.3400245085674614       0.8273777732809668
1710000000               0.4124196649854929       0.7918696660148012
1740000000               0.4811898314427847       0.7500811263326351
1770000000               0.5457972957751992       0.7023787030469173
1800000000               0.6057411102379522       0.649173945360433
1830000000               0.6605606929398598       0.5909197471807893
1860000000               0.7098390708432749       0.5281064309761392
1890000000               0.7532057503005991       0.4612576054727215
1920000000               0.7903392043370865       0.39092583102001766
1950000000               0.8209689687033208       0.317688125965788
1980000000               0.844877340922098        0.24214134717917132
2010000000               0.8619006792319163       0.16489747662254978
2040000000               0.8719303000816695       0.08657884564336094
2070000000               0.8749129749097087       0.007813327742246549
2100000000               0.8708510287026869       -0.07077047031197022
2130000000               0.8598020444736044       -0.1485479895859366
2.16E9                   0.8418781794640235       -0.2249034440286177
2.19E9                   0.8172451004708847       -0.2992344615769971
2.22E9                   0.7861205472976192       -0.3709566146774972
2.25E9                   0.7487725348171278       -0.43950781474840295
2.28E9                   0.705517205443131        -0.5043525464726141
2.31E9                   0.6567163445849684       -0.5649859199901436
2.34E9                   0.6027745714180256       -0.620937521331631
2.37E9                   0.5441362153404302       -0.671775043708111
2.4E9                    0.4812818837830111       -0.7171076836211211
2.43E9                   0.414724719587368        -0.7565892829278896
2.46E9                   0.3450063365715533       -0.7899211883074003
2.49E9                   0.27269241719829135      -0.8168547769480368
2.52E9                   0.19836796652426064      -0.8371935628725998
2.55E9                   0.12263225954859786      -0.8507947617028444
2.58E9                   0.046093601956007646     -0.8575701844319945
2.61E9                   -0.030635878906301886    -0.8574863948475064
2.64E9                   -0.10694515452261584     -0.8505642144190899
2.67E9                   -0.18222876256392057     -0.8368778284392019
2.7E9                    -0.25589087604851696     -0.8165538052557704
2.73E9                   -0.3273492385381239      -0.789770203125523
2.76E9                   -0.3960392633957591      -0.7567556847799365
2.79E9                   -0.4614184327405232      -0.7177883746396029
2.82E9                   -0.5229709099393554      -0.6731941907736125
2.85E9                   -0.5802121483332301      -0.6233445165949385
2.88E9                   -0.632693275705664       -0.5686532255071913
2.91E9                   -0.6800051042619594      -0.5095731575178853
2.94E9                   -0.7217816917936678      -0.44659216574354155
2.97E9                   -0.7577034293998082      -0.38022883295019483
3.0E9                    -0.7874996524756359      -0.3110279331389497
3.03E9                   -0.8109507762829834      -0.23955569431839577
3.06E9                   -0.8278899555516559      -0.16639490855743547
3.09E9                   -0.8382042652272376      -0.09213993193059516
3.12E9                   -0.8418353989616739      -0.017391617126708482
3.15E9                   -0.8387798835210193      0.057247776805458755
3.18E9                   -0.8290888108062948      0.13117965257736533
3.21E9                   -0.812867093336527       0.20381407393850637
3.24E9                   -0.7902722540774298      0.27457465077059434
3.27E9                   -0.7615127662872603      0.34290326531994303
3.3E9                    -0.7268459637854394      0.4082645971094523
3.33E9                   -0.6865755463433199      0.47015040668260477
3.36E9                   -0.6410487086484924      0.5280835417253456
3.39E9                   -0.5906529247540447      0.5816216322924548
3.42E9                   -0.5358124226959738      0.6303604459238081
3.45E9                   -0.4769843864904014      0.6739368772797131
3.48E9                   -0.41465492477951876     0.7120315511077874
3.51E9                   -0.34933484662597564     0.7443710219880691
3.54E9                   -0.2815552865863666      0.7707295583083331
3.57E9                   -0.21186322111247807     0.7909305030983784
3.6E9                    -0.1408169188279576      0.8048472086360381
3.63E9                   -0.06898136615342221     0.8124035466972453
3.66E9                   0.0030762914815582578    0.813574000716629
3.69E9                   0.07479125500152098      0.8083833503190567
3.72E9                   0.14560548857496816      0.7969059620324228
3.75E9                   0.21497201630657195      0.7792647024099166
3.78E9                   0.2823590702614038       0.7556294910481698
3.81E9                   0.34725406354628063      0.7262155113793924
3.84E9                   0.4091673639723819       0.6912810969712514
3.87E9                   0.46763584336313574      0.6511253114660126
3.9E9                    0.5222261774526394       0.6060852414743627
3.93E9                   0.5725378697627223       0.5565330250141693
3.96E9                   0.6182059733183579       0.5028726428703391
3.99E9                   0.6589034859355402       0.4455365068007076
4.02E9                   0.6943434005151077       0.3849818849825002
4.05E9                   0.7242804005984689       0.32168720999629263
4.08E9                   0.7485122031814608       0.25614831522535253
4.11E9                   0.7668805621749399       0.18887464089149245
4.14E9                   0.7792719540744213       0.1203854409467281
4.17E9                   0.7856179692702728       0.05120600962097305
4.2E9                    0.7858954274871235       -0.018136064026794584
4.23E9                   0.780126226836417        -0.08711461029889404
4.26E9                   0.7683769272209379       -0.15520855646731413
4.29E9                   0.7507580647702071       -0.2219055562993334
4.32E9                   0.7274231956501076       -0.2867055534978422
4.35E9                   0.6985676729561402       -0.34912425859931995
4.38E9                   0.664427165311146        -0.4086965210524765
4.41E9                   0.6252759269320528       -0.4649795831366591
4.44E9                   0.5814248256346162       -0.5175562061607819
4.47E9                   0.5332191297397486       -0.5660376590163255
4.5E9                    0.4810360504976572       -0.6100665542370024
4.53E9                   0.42528203638298195      -0.6493195088609561
4.56E9                   0.3663898200358423       -0.6835095999123789
4.59E9                   0.3048152271672073       -0.7123885792474925
4.62E9                   0.24103376686508238      -0.7357488120010424
4.65E9                   0.17553703239695634      -0.7534249064716599
4.68E9                   0.10882894927264389      -0.7652950103029166
4.71E9                   0.04142191138340667      -0.7712817570396611
4.74E9                   -0.02616715382805808     -0.7713528566796792
4.77E9                   -0.09342075338064504     -0.7655213317577183
4.8E9                    -0.15982479820912854     -0.7538454054367664
4.83E9                   -0.2248725479169191      -0.7364280489869597
4.86E9                   -0.28806850893138947     -0.7134161938918521
4.89E9                   -0.3489322644835984      -0.6849996103386304
4.92E9                   -0.40700221223431365     -0.651409451414407
4.95E9                   -0.46183918058358114     -0.6129164626135377
4.98E9                   -0.5130298902610892      -0.569828859440133
5.01E9                   -0.5601902243973769      -0.5224898815811148
5.04E9                   -0.6029682692787731      -0.47127503897983464
5.07E9                   -0.6410470891597658      -0.41658907229826414
5.1E9                    -0.6741472014882984      -0.3588626573032964
5.13E9                   -0.7020287240933515      -0.29854888894509024
5.16E9                   -0.7244931731575841      -0.23611958550043344
5.19E9                   -0.741384899336966       -0.17206145540867374
5.22E9                   -0.7525921583959789      -0.10687216757449117
5.25E9                   -0.7580478191777102      -0.04105636091173509
5.28E9                   -0.7577297140204197      0.024878378043884646
5.31E9                   -0.7516606342434694      0.0904255460366595
5.34E9                   -0.7399079681236148      0.1550837397238893
5.37E9                   -0.7225829748319197      0.21836063064101674
5.4E9                    -0.6998396883615676      0.2797768634632295
5.43E9                   -0.671873451475251       0.33886983483484623
5.46E9                   -0.6389190897048818      0.39519730634847366
5.49E9                   -0.601248746725363       0.4483408058205418
5.52E9                   -0.5591694126408134      0.4979087761385085
5.55E9                   -0.5130201846529968      0.543539438972754
5.58E9                   -0.46316930452273475     0.5849033508059188
5.61E9                   -0.4100110186417877      0.6217056402107574
5.64E9                   -0.3539623035633425      0.653687926784254
5.67E9                   -0.2954594918446019      0.6806299315797111
5.7E9                    -0.2349548210540749      0.7023507929325303
5.73E9                   -0.17291291672587478     0.7187100974592113
5.76E9                   -0.10980721337737478     0.7296086245253202
5.79E9                   -0.046116321854774794    0.7349887884565872
5.82E9                   0.017679634361240915     0.7348347549324923
5.85E9                   0.08110267323088749      0.7291722125237566
5.88E9                   0.1436805460380388       0.7180677967666709
5.91E9                   0.20495021509136394      0.7016281851283898
5.94E9                   0.2644611778620371       0.6799988973571328
5.97E9                   0.3217786158109888       0.6533628414160643
6.0E9                    0.37648636190829454      0.6219386409661579
