% Model:              three_layers reality at 0.1mm.mph
% Version:            COMSOL 5.6.0.280
% Date:               Feb 23 2022, 19:14
% Table:              表格 1 - 全局计算 1
% freq (Hz)              real(emw.S11) (1)        imag(emw.S11) (1)
300000000                0.5389866258997021       -0.727803050566331
330000000                0.4702841056506561       -0.7723460167550096
360000000                0.39803796975346073      -0.8105502623739964
390000000                0.322809604855987        -0.8421253282113629
420000000                0.2451888791365068       -0.8668317141854995
450000000                0.16578839184740168      -0.8844833530086684
480000000                0.0852378689517746       -0.8949495906104237
510000000                0.0041786086652889414    -0.8981566736070583
540000000                -0.07674206352081897     -0.8940887397473865
570000000                -0.1568763363351197      -0.882788305333714
600000000                -0.23558143795935607     -0.8643562443582851
630000000                -0.3122251188196554      -0.8389512557281171
660000000                -0.38619105716618374     -0.8067888181836346
690000000                -0.4568841477192669      -0.7681396361698009
720000000                -0.5237356294963539      -0.723327584599081
750000000                -0.5862080076238406      -0.6727271651055509
780000000                -0.6437997226018929      -0.6167604918943788
810000000                -0.6960495214178367      -0.5558938303530919
840000000                -0.7425404859746905      -0.49063371720697324
870000000                -0.782903676748166       -0.42152269613293225
900000000                -0.8168213528193031      -0.3491347076856687
930000000                -0.84402973320475        -0.27407017726974536
960000000                -0.8643212693347258      -0.19695084859260553
990000000                -0.8775464035001566      -0.118414414101196
1020000000               -0.8836147941395025      -0.03910899622183588
1050000000               -0.8824959948234992      0.0403124643153612
1080000000               -0.8742195803283684      0.11919785565283823
1110000000               -0.8588747197575417      0.19690151969549602
1140000000               -0.8366092032661074      0.2727897973052175
1170000000               -0.8076279354450068      0.34624643764607743
1200000000               -0.7721909146105659      0.41667781784949603
1230000000               -0.730610723178611       0.48351792177223774
1260000000               -0.6832495596239533      0.5462330305070163
1290000000               -0.6305158474388671      0.6043260812831961
1320000000               -0.5728604606141409      0.657340656317286
1350000000               -0.5107726087263391      0.7048645681862299
1380000000               -0.4447754273713404      0.7465330138585036
1410000000               -0.3754213218467703      0.7820312749870036
1440000000               -0.3032871130374485      0.8110969479511457
1470000000               -0.22896903509950148     0.8335216926456316
1500000000               -0.15307763427874388     0.8491524945987813
1530000000               -0.07623261744489529     0.8578924402352487
1560000000               9.423025956007081E-4     0.8597010101039505
1590000000               0.07782451985906391      0.8545938994609898
1620000000               0.15379756307573197      0.8426423797481619
1650000000               0.22825599884743594      0.8239722182321478
1680000000               0.30061017270361623      0.7987621762782884
1710000000               0.3702907543536153       0.7672421094683242
1740000000               0.4367530563461539       0.7296906950523712
1770000000               0.4994810989599131       0.6864328139875877
1800000000               0.5579913972292824       0.6378366162774995
1830000000               0.61183644956377         0.5843102991879073
1860000000               0.6606079103089364       0.5262986287000925
1890000000               0.7039394319023071       0.4642792347690874
1920000000               0.7415091651315167       0.3987587110274091
1950000000               0.7730419088856707       0.3302685493573113
1980000000               0.7983109035489758       0.2593609392902389
2010000000               0.8171392650358819       0.1866044610916835
2040000000               0.8294010589588464       0.11257970027720246
2070000000               0.8350220169891949       0.03787480890307346
2100000000               0.8339798992883779       -0.03691896419871036
2130000000               0.8263045073330346       -0.11121175686804446
2.16E9                   0.8120773488352427       -0.18441957954961247
2.19E9                   0.7914309482735803       -0.25596879862247085
2.22E9                   0.7645477799942761       -0.32530061418551126
2.25E9                   0.7316587758783574       -0.39187551793316816
2.28E9                   0.6930413352721992       -0.4551776794377796
2.31E9                   0.6490167674867764       -0.5147191384402291
2.34E9                   0.5999471673855125       -0.5700435979883445
2.37E9                   0.546231881031827        -0.6207295908882575
2.4E9                    0.4883038936384065       -0.666392921621312
2.43E9                   0.42662650025133825      -0.7066885660698133
2.46E9                   0.3616903831464228       -0.7413124529710902
2.49E9                   0.29401084701752966      -0.770003510551589
2.52E9                   0.22412476333045106      -0.7925460339131294
2.55E9                   0.15258690469222813      -0.808772090516367
2.58E9                   0.07996564907336978      -0.8185635834716335
2.61E9                   0.0068382516052313495    -0.8218537218911319
2.64E9                   -0.06621407514345067     -0.8186278324698391
2.67E9                   -0.13861109741992836     -0.8089235622920449
2.7E9                    -0.2097784208173673      -0.7928305542364776
2.73E9                   -0.27915223609773687     -0.7704896613671157
2.76E9                   -0.3461839331372019      -0.7420917412119449
2.79E9                   -0.41034456792501817     -0.7078760517573492
2.82E9                   -0.47112916245191666     -0.6681282614424264
2.85E9                   -0.528060811193883       -0.6231780831568514
2.88E9                   -0.5806945633708528      -0.5733965442457393
2.91E9                   -0.6286210477583215      -0.519192908571093
2.94E9                   -0.6714698063613925      -0.46101127145607035
2.97E9                   -0.7089123042932348      -0.3993268531176079
3.0E9                    -0.7406645852678166      -0.3346420208241627
3.03E9                   -0.7664895452006404      -0.2674820740820407
3.06E9                   -0.7861988001230303      -0.19839083076842634
3.09E9                   -0.7996541289288063      -0.12792605508173047
3.12E9                   -0.8067684761900102      -0.056654770511030884
3.15E9                   -0.8075065053521835      0.014851497475226853
3.18E9                   -0.8018846977730784      0.08602150353891691
3.21E9                   -0.789970998224453       0.15628904390975895
3.24E9                   -0.7718840123959777      0.22509765254347436
3.27E9                   -0.747791766445387       0.29190518865223325
3.3E9                    -0.7179100426999561      0.35618827414807896
3.33E9                   -0.6825003091323041      0.41744654148475946
3.36E9                   -0.6418672633986001      0.47520665438437626
3.39E9                   -0.5963560151645335      0.5290260657505
3.42E9                   -0.546348933410014       0.5784964788218351
3.45E9                   -0.4922621887535698      0.6232469791464783
3.48E9                   -0.4345420246611462      0.6629468068878709
3.51E9                   -0.3736607959999641      0.6973077414362047
3.54E9                   -0.3101128183277741      0.7260860741283732
3.57E9                   -0.24441007633514245     0.7490841503817159
3.6E9                    -0.177077843790147       0.7661514700716701
3.63E9                   -0.10865026934990817     0.7771853440867584
3.66E9                   -0.03966598198629328     0.7821311147240637
3.69E9                   0.029336233689493875     0.7809819567691513
3.72E9                   0.0978216472973152       0.773778283723332
3.75E9                   0.16526363932327792      0.7606067895401117
3.78E9                   0.23114757333639027      0.7415991608917352
3.81E9                   0.29497446063603194      0.7169304986683271
3.84E9                   0.35626440438982476      0.6868174894327638
3.87E9                   0.41455982193957475      0.65151636604958
3.9E9                    0.4694284556445354       0.611320689623899
3.93E9                   0.5204661901429715       0.5665589720928472
3.96E9                   0.5672996938936367       0.5175921428915491
3.99E9                   0.609588893862473        0.46481084914800397
4.02E9                   0.6470292765276309       0.40863257204162845
4.05E9                   0.6793539912481812       0.34949854496601757
4.08E9                   0.7063357191683051       0.28787047113597203
4.11E9                   0.7277882662005937       0.22422705502647353
4.14E9                   0.7435678429322728       0.1590603784904107
4.17E9                   0.7535740054290003       0.09287216420911631
4.2E9                    0.757750245280207        0.026169974028912593
4.23E9                   0.7560842308754915       -0.040536612132971356
4.26E9                   0.7486077119880232       -0.10673979811845907
4.29E9                   0.7353961046269639       -0.17193732469724218
4.32E9                   0.7165677729509103       -0.2356361533100035
4.35E9                   0.6922830212920055       -0.29735606539446285
4.38E9                   0.6627428043220981       -0.3566331641331897
4.41E9                   0.6281871593954425       -0.4130232637741646
4.44E9                   0.5888933635353742       -0.4661051479004621
4.47E9                   0.5451738188272295       -0.5154836738532149
4.5E9                    0.49737367355472895      -0.5607926973708891
4.53E9                   0.44586819141202894      -0.6016977901030871
4.56E9                   0.39105988657735263      -0.6378987232695088
4.59E9                   0.3333754474789521       -0.6691316933328156
4.62E9                   0.2732624762098372       -0.6951712697419505
4.65E9                   0.21118607265950917      -0.715832050380901
4.68E9                   0.14762529229931226      -0.7309700160030292
4.71E9                   0.08306950379647518      -0.7404835795511608
4.74E9                   0.018014668425878354     -0.7443143280776368
4.77E9                   -0.04704044052073506     -0.742447453430017
4.8E9                    -0.11159806115313985     -0.7349118636391341
4.83E9                   -0.17516528883674135     -0.7217799623311875
4.86E9                   -0.2372579169712287      -0.703167081352375
4.89E9                   -0.29740423640867725     -0.6792305542184236
4.92E9                   -0.35514874949175673     -0.6501684253376157
4.95E9                   -0.4100557506167123      -0.6162178009163193
4.98E9                   -0.46171272609666814     -0.577652859746449
5.01E9                   -0.5097335318628343      -0.5347825533295192
5.04E9                   -0.5537613174120012      -0.487948032898227
5.07E9                   -0.5934711766415313      -0.43751984422690254
5.1E9                    -0.6285725184625375      -0.3838949286103905
5.13E9                   -0.6588111590580462      -0.3274934603563642
5.16E9                   -0.6839711403040494      -0.26875553975231237
5.19E9                   -0.70387627348744        -0.20813775026920728
5.22E9                   -0.7183913958430774      -0.14610958501642282
5.25E9                   -0.7274233150772643      -0.08314975363171312
5.28E9                   -0.7309214111225709      -0.019742395911646345
5.31E9                   -0.7288778700390734      0.04362675407847631
5.34E9                   -0.7213275413125215      0.10647419813613529
5.37E9                   -0.708347430386072       0.16832244327163365
5.4E9                    -0.6900558544050881      0.22870366702722067
5.43E9                   -0.6666112950658691      0.28716325293271255
5.46E9                   -0.6382109776961351      0.3432631857626701
5.49E9                   -0.6050891943715069      0.3965853045120238
5.52E9                   -0.5675153766836797      0.4467344105566309
5.55E9                   -0.5257919152376572      0.49334122123460517
5.58E9                   -0.48025172038761355     0.5360651483352642
5.61E9                   -0.431255522342114       0.5745968700250663
5.64E9                   -0.3791889181948056      0.6086606558627169
5.67E9                   -0.32445918733706264     0.6380164003632962
5.7E9                    -0.2674919133864334      0.6624613231323391
5.73E9                   -0.20872746622332397     0.6818313049635032
5.76E9                   -0.1486174066774531      0.6960018486160486
5.79E9                   -0.08762087370488719     0.7048886754748358
5.82E9                   -0.026200999216379906    0.7084479865508819
5.85E9                   0.03517862526073987      0.7066764212805848
5.88E9                   0.09605742331223599      0.6996107393120139
5.91E9                   0.15598124957118104      0.687327235103369
5.94E9                   0.2145057415563775       0.6699408816781365
5.97E9                   0.2711995905179517       0.647604194382609
6.0E9                    0.3256477029038152       0.6205058086689254
