% Model:              three_layers reality at 0.1mm.mph
% Version:            COMSOL 5.6.0.280
% Date:               Mar 6 2022, 21:17
% Table:              表格 1 - 全局计算 1
% freq (Hz)              real(emw.S11) (1)        imag(emw.S11) (1)
300000000                0.5599983077797406       -0.7532377009055282
330000000                0.4888032703599441       -0.7998138836686259
360000000                0.4138810721591064       -0.8398053102555297
390000000                0.33581296511520214      -0.872907484349634
420000000                0.2552108437525833       -0.8988670618118939
450000000                0.17271137810579554      -0.9174851796877969
480000000                0.08897020413865829      -0.9286200425700273
510000000                0.004656114489829478     -0.9321888531888866
540000000                -0.07955477241667097     -0.9281691332558873
570000000                -0.1629848618054524      -0.9165994575114125
600000000                -0.24496092960087026     -0.8975796127684759
630000000                -0.32481993755914174     -0.8712701888087215
660000000                -0.40191477724321145     -0.8378916070237494
690000000                -0.47561989971266777     -0.7977225941114492
720000000                -0.5453367833697037      -0.7510981114238305
750000000                -0.6104991910104652      -0.698406754612678
780000000                -0.6705781659074233      -0.6400876433849002
810000000                -0.7250867173483961      -0.5766268262872118
840000000                -0.7735841473204585      -0.5085532312631705
870000000                -0.8156799724688142      -0.43643419812700834
900000000                -0.8510373989798348      -0.36087063424103794
930000000                -0.8793763118475507      -0.2824918401159111
960000000                -0.9004757452030653      -0.20195005594886029
990000000                -0.9141758060967353      -0.11991478381063148
1020000000               -0.920379030156153       -0.03706694362715412
1050000000               -0.9190511543053292      0.04590707654394266
1080000000               -0.9102212987511618      0.12832141426311874
1110000000               -0.8939815575665886      0.20949670803632145
1140000000               -0.8704860043543313      0.2887659922258447
1170000000               -0.839949126624217       0.36548045095336024
1200000000               -0.8026437092185532      0.4390149727776968
1230000000               -0.758898193626985       0.5087734507232831
1260000000               -0.7090935458480208      0.5741937764929915
1290000000               -0.6536596707624578      0.6347524820553405
1320000000               -0.593071415558391       0.6899689869989024
1350000000               -0.5278442085044139      0.7394094156886019
1380000000               -0.45852938242709396     0.7826899540911043
1410000000               -0.3857092343317611      0.8194797223862219
1440000000               -0.3099918739776369      0.8495031455664723
1470000000               -0.2320059146454078      0.8725418104941878
1500000000               -0.15239505930948224     0.8884358036911357
1530000000               -0.07181263414519244     0.8970845300636825
1560000000               0.009083880013828071     0.8984470179829481
1590000000               0.08963826998512854      0.8925417211435653
1620000000               0.1692009206077728       0.8794458320864138
1650000000               0.24713401032782586      0.859294126222612
1680000000               0.322816532780424        0.832277358611019
1710000000               0.39564910818873966      0.798640238671225
1740000000               0.46505855245511685      0.7586790102757517
1770000000               0.53050217498593         0.7127386666830545
1800000000               0.5914717804040477       0.6612098309385273
1830000000               0.6474973522547046       0.6045253336429456
1860000000               0.6981504008321221       0.5431565202161587
1890000000               0.7430469600506847       0.47760932032983555
1920000000               0.7818502216488427       0.4084201120042919
1950000000               0.8142727980513027       0.33615141249366487
1980000000               0.8400786080412183       0.26138742754392624
2010000000               0.8590843823479152       0.1847294894180002
2040000000               0.8711607888490538       0.10679141292081012
2070000000               0.8762331798739436       0.02819479561999795
2100000000               0.8742819657020355       -0.05043571432878438
2130000000               0.8653426189133363       -0.12847716500739137
2.16E9                   0.8495053112331523       -0.20531305083424828
2.19E9                   0.8269141756730239       -0.2803380609555745
2.22E9                   0.7977661688442812       -0.3529628235863865
2.25E9                   0.7623094815628623       -0.42261863098307384
2.28E9                   0.7208414196089535       -0.48876209009900873
2.31E9                   0.6737056796275734       -0.5508795673086151
2.34E9                   0.6212890208673247       -0.6084912070152512
2.37E9                   0.5640175020985666       -0.6611542803349639
2.4E9                    0.5023526412423067       -0.7084657607030936
2.43E9                   0.4367878836187288       -0.7500643255538065
2.46E9                   0.36784550761823137      -0.7856322416531452
2.49E9                   0.2960736948486881       -0.8148975441687153
2.52E9                   0.22204328029954398      -0.8376365635478547
2.55E9                   0.14634384183592708      -0.8536764913231807
2.58E9                   0.06957911198744408      -0.86289757476693
2.61E9                   -0.007638072177749678    -0.8652346729437609
2.64E9                   -0.08469102190916047     -0.8606781062378606
2.67E9                   -0.1609644656900745      -0.8492738546922598
2.7E9                    -0.23584973633822762     -0.831123192754668
2.73E9                   -0.3087498358207481      -0.8063818310650666
2.76E9                   -0.3790843593076291      -0.7752586083074285
2.79E9                   -0.4462942622531957      -0.7380137557773547
2.82E9                   -0.5098464484319323      -0.6949567472501411
2.85E9                   -0.5692381499842333      -0.6464437446415087
2.88E9                   -0.6240010658137202      -0.5928746522386298
2.91E9                   -0.673705222092801       -0.5346897967962339
2.94E9                   -0.7179625180762537      -0.47236625615325245
2.97E9                   -0.7564299216848146      -0.4064138642251763
3.0E9                    -0.7888122816126082      -0.33737092535158664
3.03E9                   -0.8148647261255288      -0.26579967541142835
3.06E9                   -0.8343946228053274      -0.19228153112665022
3.09E9                   -0.8472630783021451      -0.11741217213050861
3.12E9                   -0.8533859623326292      -0.04179650294188803
3.15E9                   -0.8527344457579847      0.03395645637955207
3.18E9                   -0.8453350482702556      0.10923870135812785
3.21E9                   -0.8312691968777659      0.18344834654385034
3.24E9                   -0.8106723017713358      0.2559946527573004
3.27E9                   -0.7837323611356702      0.3263029310761492
3.3E9                    -0.7506881108642697      0.39381927875540845
3.33E9                   -0.7118267390473808      0.45801510430575054
3.36E9                   -0.6674811885384084      0.5183914013273658
3.39E9                   -0.6180270740380919      0.574482732878573
3.42E9                   -0.5638792434803821      0.6258608899404355
3.45E9                   -0.5054880169643541      0.6721381895814751
3.48E9                   -0.44333514067378293     0.7129703805260145
3.51E9                   -0.3779294981145862      0.7480591266524105
3.54E9                   -0.3098026262022859      0.7771540433256959
3.57E9                   -0.2395040891180914      0.8000542674786821
3.6E9                    -0.16759676679834926     0.8166095507452114
3.63E9                   -0.09465211703443527     0.8267208748107676
3.66E9                   -0.021245469070037618    0.8303405988079918
3.69E9                   0.05204859728339511      0.8274721584883967
3.72E9                   0.12466073927155641      0.8181693451194999
3.75E9                   0.19603116505108958      0.8025351983293643
3.78E9                   0.2656137413742702       0.7807205519784706
3.81E9                   0.33287987196577423      0.7529222757856442
3.84E9                   0.3973221344184037       0.7193812571907539
3.87E9                   0.4584576764219868       0.6803801655914912
3.9E9                    0.5158313843021242       0.6362410327789944
3.93E9                   0.5690188444830195       0.5873226689838694
3.96E9                   0.6176291175972892       0.5340179165431254
3.99E9                   0.6613073344375178       0.4767507283673813
4.02E9                   0.6997371054178245       0.4159730517239865
4.05E9                   0.7326427166709039       0.35216150194222007
4.08E9                   0.7597910724618775       0.28581382424867957
4.11E9                   0.7809933392345713       0.2174451604471786
4.14E9                   0.7961062520687539       0.14758415464027314
4.17E9                   0.8050330567747785       0.07676894457334252
4.2E9                    0.807724076561788        0.0055430897358148675
4.23E9                   0.8041769067477592       -0.06554851521014769
4.26E9                   0.7944362514501364       -0.13596370113609366
4.29E9                   0.778593420940603        -0.20516702876332352
4.32E9                   0.7567855076966161       -0.2726337155309519
4.35E9                   0.7291942548294892       -0.3378534696088493
4.38E9                   0.6960446250031165       -0.4003342175634248
4.41E9                   0.6576030736766413       -0.4596057098997737
4.44E9                   0.6141755289693986       -0.5152229844794006
4.47E9                   0.5661050819280252       -0.5667696633005224
4.5E9                    0.5137693950522392       -0.6138610546182451
4.53E9                   0.4575778422842975       -0.6561470310542877
4.56E9                   0.39796839965427966      -0.6933146549579385
4.59E9                   0.3354043111370464       -0.725090525200144
4.62E9                   0.2703705586105608       -0.7512428241274827
4.65E9                   0.2033701670750034       -0.7715830493081217
4.68E9                   0.1349203759412223       -0.7859674207817313
4.71E9                   0.06554870420757855      -0.7942979592266908
4.74E9                   -0.00421106705702492     -0.7965232321944701
4.77E9                   -0.07382297547811732     -0.7926387636787732
4.8E9                    -0.14275300257011292     -0.7826870975950225
4.83E9                   -0.21047322071019858     -0.7667575008989918
4.86E9                   -0.2764659312823657      -0.7449852900630279
4.89E9                   -0.3402277536706185      -0.7175507676980812
4.92E9                   -0.4012736166062024      -0.6846777644927904
4.95E9                   -0.4591405992468519      -0.6466317938199055
4.98E9                   -0.5133915706213495      -0.6037178398880765
5.01E9                   -0.5636185829208464      -0.5562778123708997
5.04E9                   -0.6094459849817208      -0.5046877091119958
5.07E9                   -0.6505332359286382      -0.4493545316053242
5.1E9                    -0.686577412096235       -0.39071299479903354
5.13E9                   -0.7173154097664618      -0.32922206366636
5.16E9                   -0.7425258485447981      -0.26536133651029775
5.19E9                   -0.7620306738040572      -0.19962728418468123
5.22E9                   -0.7756964436699376      -0.13252935107390174
5.25E9                   -0.7834352728554382      -0.06458593124116352
5.28E9                   -0.7852054000568696      0.0036797499566340454
5.31E9                   -0.781011352785797       0.07174379945438798
5.34E9                   -0.7709037021420265      0.13908580430223375
5.37E9                   -0.7549784225359887      0.20519290406008725
5.4E9                    -0.733375888417982       0.26956374183017123
5.43E9                   -0.7062795455439285      0.33171226732684156
5.46E9                   -0.6739142882035722      0.3911713820147078
5.49E9                   -0.6365445610164734      0.4474964245070213
5.52E9                   -0.5944721906554362      0.5002684931300541
5.55E9                   -0.5480339441027321      0.5490975939805635
5.58E9                   -0.4975988079942646      0.5936255908748439
5.61E9                   -0.4435649884979116      0.6335289216947357
5.64E9                   -0.3863566420973563      0.6685210366770767
5.67E9                   -0.32642036332875046     0.6983545104382204
5.7E9                    -0.26422147363629284     0.7228227835364149
5.73E9                   -0.20024017169704644     0.7417615028854789
5.76E9                   -0.13496761413669153     0.7550494520807052
5.79E9                   -0.06890199111600862     0.7626090871302338
5.82E9                   -0.0025446440309979225   0.7644067109958963
5.85E9                   0.06360375061190844      0.7604523243803426
5.88E9                   0.1290469255697186       0.7507991799810679
5.91E9                   0.19329669604717348      0.7355430501898894
5.94E9                   0.2558765556850222       0.7148212038056434
5.97E9                   0.3163251762478268       0.688811082105463
6.0E9                    0.37419977955546035      0.6577286688694648
