% Model:              three_layers reality at 0.1mm.mph
% Version:            COMSOL 5.6.0.280
% Date:               Mar 6 2022, 21:15
% Table:              表格 1 - 全局计算 1
% freq (Hz)              real(emw.S11) (1)        imag(emw.S11) (1)
300000000                0.5583945431231448       -0.7518258928488464
330000000                0.48735282213853764      -0.7981940309620242
360000000                0.4126091605179134       -0.837999664415489
390000000                0.3347412644448108       -0.8709400496704984
420000000                0.2543576528531162       -0.8967633379287341
450000000                0.17209171190399497      -0.9152719132821838
480000000                0.0885958394679646       -0.926324976665188
510000000                0.004535613415766449     -0.9298404686297617
540000000                -0.07941604733857376     -0.925796380946919
570000000                -0.16258472754237163     -0.9142314819529704
600000000                -0.24430035181572318     -0.8952454687845681
630000000                -0.3239029821315271      -0.8689985540931922
660000000                -0.4007485409890816      -0.8357104934809887
690000000                -0.4742144174251447      -0.7956590613126062
720000000                -0.543704909330431       -0.7491779858058658
750000000                -0.6086564550271503      -0.6966543575552029
780000000                -0.6685426031511986      -0.6385255319585035
810000000                -0.7228786731112373      -0.5752755498386207
840000000                -0.7712260578023991      -0.50743110704951
870000000                -0.8131961233722681      -0.43555710895215904
900000000                -0.8484536639959059      -0.3602518509314724
930000000                -0.8767198737433687      -0.2821418710778118
960000000                -0.8977748023068133      -0.20187652605094894
990000000                -0.9114592675086716      -0.12012234389820614
1020000000               -0.9176762028687812      -0.037557212548247454
1050000000               -0.9163914259985996      0.045135537293737926
1080000000               -0.9076338197661071      0.12727309242004567
1110000000               -0.8914949257522917      0.20817909922553204
1140000000               -0.868127956440382       0.287189525829927
1170000000               -0.8377462396107553      0.36365838436451126
1200000000               -0.8006211151840216      0.4369632551486314
1230000000               -0.757079311128391       0.506510558114995
1260000000               -0.707499830800546       0.5717405205532928
1290000000               -0.6523103894550675      0.6321317945629832
1320000000               -0.5919834420636482      0.6872056830305612
1350000000               -0.5270318484933771      0.7365299382070347
1380000000               -0.45800422486247233     0.7797221031467045
1410000000               -0.38548003235182615     0.816452371948929
1440000000               -0.31006445566877394     0.8464459513449096
1470000000               -0.2323831243358364      0.8694849118446393
1500000000               -0.15307672921989682     0.885409522963761
1530000000               -0.07279558636744846     0.894119072403438
1560000000               0.007805802008599017     0.8955721746568209
1590000000               0.08807414090692377      0.8897865792203835
1620000000               0.1673626454286218       0.8768384931975952
1650000000               0.24503620993971786      0.8568614368889691
1680000000               0.3204764050848541       0.8300446544258376
1710000000               0.39308626612391695      0.7966311044232993
1740000000               0.4622948409434686       0.7569150578638806
1770000000               0.5275614687557161       0.7112393324394553
1800000000               0.5883797647073447       0.6599921937872124
1830000000               0.6442812886008131       0.6036039552920851
1860000000               0.6948388798971653       0.5425433083441015
1890000000               0.739669643800755        0.47731341568258945
1920000000               0.77843757693311         0.4084477999567743
1950000000               0.8108558237118157       0.33650605966352076
1980000000               0.8366885576967769       0.262069443807188
2010000000               0.8557524849344706       0.18573631574602878
2040000000               0.867917969138654        0.10811753512496756
2070000000               0.8731097811552591       0.029831784423960946
2100000000               0.8713074771074446       -0.04849913688343791
2130000000               0.8625454101323566       -0.1262550325907989
2.16E9                   0.8469123779032437       -0.20282203345685954
2.19E9                   0.8245508993573367       -0.2775973200774022
2.22E9                   0.7956560962554851       -0.34999384343028056
2.25E9                   0.76047412781437         -0.4194450303229251
2.28E9                   0.7193000992861951       -0.48540942133134773
2.31E9                   0.6724753656726332       -0.5473751128818403
2.34E9                   0.6203842247512477       -0.6048637834434953
2.37E9                   0.5634501610210382       -0.657434054964306
2.4E9                    0.5021319951723114       -0.7046840743230469
2.43E9                   0.43692033262466357      -0.7462535006288173
2.46E9                   0.36833445801515946      -0.7818253513321958
2.49E9                   0.29691941943136335      -0.8111281285426561
2.52E9                   0.22324282127647166      -0.8339382998143305
2.55E9                   0.14789097322480452      -0.8500828397342934
2.58E9                   0.07146436206657185      -0.8594414241352908
2.61E9                   -0.0054273485971817696   -0.861948001733083
2.64E9                   -0.08217053367656746     -0.8575916656385578
2.67E9                   -0.15815284709199934     -0.8464168738699546
2.7E9                    -0.2327683858913007      -0.8285231042809191
2.73E9                   -0.3054227340808279      -0.8040640148301819
2.76E9                   -0.3755378665151988      -0.7732461534238175
2.79E9                   -0.4425568961190708      -0.7363272411431594
2.82E9                   -0.5059486426063357      -0.6936140422845409
2.85E9                   -0.5652119941944896      -0.6454598321427849
2.88E9                   -0.6198800292441431      -0.5922614754348108
2.91E9                   -0.6695238619612365      -0.5344561326577381
2.94E9                   -0.7137561759167413      -0.472517616714079
2.97E9                   -0.7522344100374445      -0.4069524275057086
3.0E9                    -0.7846635641725931      -0.33829549702224204
3.03E9                   -0.8107985945593715      -0.26710568199124457
3.06E9                   -0.8304463735340225      -0.19396104514348145
3.09E9                   -0.8434671926325639      -0.1194539692219112
3.12E9                   -0.849775793301685       -0.044186150487332605
3.15E9                   -0.8493419149843672      0.031236479856755085
3.18E9                   -0.8421903560279909      0.10620885720755702
3.21E9                   -0.8284005484514335      0.18013185893987413
3.24E9                   -0.8081056529881683      0.25241730537295365
3.27E9                   -0.781491185761948       0.32249283975750453
3.3E9                    -0.7487931923475508      0.3898066425400133
3.33E9                   -0.7102959887729814      0.453831937672047
3.36E9                   -0.666329492465216       0.5140712507085081
3.39E9                   -0.6172661692408004      0.5700603807246544
3.42E9                   -0.5635176256063418      0.6213720499365796
3.45E9                   -0.5055308791496508      0.6676191967187416
3.48E9                   -0.44378434393677435     0.7084578797480625
3.51E9                   -0.37878357250213157     0.7435897638822724
3.54E9                   -0.31105680156514365     0.7727641623033945
3.57E9                   -0.2411503535380038      0.7957796156792654
3.6E9                    -0.16962395051503362     0.8124849969644942
3.63E9                   -0.09704599915396771     0.8227801405252703
3.66E9                   -0.02398890430972287     0.8266160046648144
3.69E9                   0.04897553454726875      0.8239943866136903
3.72E9                   0.12128059616785265      0.8149672172808723
3.75E9                   0.19236893864246626      0.7996354694134591
3.78E9                   0.2616966959033487       0.7781477177792683
3.81E9                   0.3287373454774498       0.7506983939085274
3.84E9                   0.39298533459946033      0.7175257799383226
3.87E9                   0.4539594643989226       0.678909784336001
3.9E9                    0.5112060445714292       0.6351695344381003
3.93E9                   0.5643018391791946       0.5866608066158621
3.96E9                   0.6128568240151027       0.5337732975512904
3.99E9                   0.6565167662735938       0.4769277246848338
4.02E9                   0.694965620006504        0.4165727365206857
4.05E9                   0.727927712275612        0.3531816165680679
4.08E9                   0.7551696808396688       0.2872487776158831
4.11E9                   0.7765021190393206       0.2192860612410209
4.14E9                   0.7917808881706403       0.14981887519768447
4.17E9                   0.8009080696268832       0.07938221398923447
4.2E9                    0.8038325444730003       0.008516613378837355
4.23E9                   0.8005502028745131       -0.06223591257903101
4.26E9                   0.791103796553205        -0.1323359110471559
4.29E9                   0.7755824526342039       -0.20125047532009652
4.32E9                   0.7541208669356312       -0.2684571536267439
4.35E9                   0.7268981906102703       -0.3334477662706967
4.38E9                   0.6941366185132815       -0.3957321175567976
4.41E9                   0.6560996833118709       -0.454841587000293
4.44E9                   0.613090257554238        -0.5103325802170501
4.47E9                   0.5654482673578756       -0.5617898151726359
4.5E9                    0.5135481251749491       -0.6088294160889555
4.53E9                   0.457795894555764        -0.6511017856357926
4.56E9                   0.39862620565984097      -0.6882942267008177
4.59E9                   0.3364989458829364       -0.7201332876697474
4.62E9                   0.2718957542659835       -0.746386809771121
4.65E9                   0.20531635083140998      -0.7668656608804524
4.68E9                   0.1372747318325617       -0.7814251463248338
4.71E9                   0.06829525880572511      -0.7899660921657633
4.74E9                   -0.0010913349221290502   -0.7924355982826298
4.77E9                   -0.07035200092260663     -0.7888274569069781
4.8E9                    -0.13895547690317578     -0.7791822275944823
4.83E9                   -0.2063764104907059      -0.763586954664559
4.86E9                   -0.27209947554164265     -0.7421745108840103
4.89E9                   -0.3356234414472926      -0.7151225539070588
4.92E9                   -0.396465147509421       -0.6826520900681807
4.95E9                   -0.45416332994013636     -0.6450256521854217
4.98E9                   -0.5082822502899141      -0.6025451113729269
5.01E9                   -0.5584150801946061      -0.5555491552573185
5.04E9                   -0.6041870083718166      -0.5044104737108286
5.07E9                   -0.6452580491037168      -0.44953269678626806
5.1E9                    -0.6813255447576844      -0.3913471267697565
5.13E9                   -0.7121263646910613      -0.33030929737055115
5.16E9                   -0.737438805576775       -0.2668953807870312
5.19E9                   -0.7570841923519338      -0.20159845220724298
5.22E9                   -0.7709281662280385      -0.1349246175040337
5.25E9                   -0.778881632896985       -0.0673890168396393
5.28E9                   -0.7809013379379647      4.882667133312038E-4
5.31E9                   -0.7769900428600987      0.0681863453079272
5.34E9                   -0.7671962933034333      0.13518765084755033
5.37E9                   -0.751613793372904       0.20098198612599366
5.4E9                    -0.7303804175132111      0.265070455936395
5.43E9                   -0.7036768975236071      0.32696925063164156
5.46E9                   -0.6717252168140384      0.3862132715728549
5.49E9                   -0.6347867315374165      0.4423595966168272
5.52E9                   -0.5931600249195884      0.49499078319187034
5.55E9                   -0.5471784919442022      0.5437179984593001
5.58E9                   -0.49720764889219415     0.5881839543723224
5.61E9                   -0.44364216649018645     0.6280656134849042
5.64E9                   -0.38690263576665135     0.6630766220488425
5.67E9                   -0.3274320910193444      0.6929694225946424
5.7E9                    -0.26569233233928957     0.717537001457174
5.73E9                   -0.202160106721591       0.736614239442646
5.76E9                   -0.13732321602266087     0.7500788551625989
5.79E9                   -0.07167661654680604     0.7578519549892162
5.82E9                   -0.005718558443428279    0.7598982220979611
5.85E9                   0.06005320978678341      0.7562257819448612
5.88E9                   0.125145165422164        0.7468857721005276
5.91E9                   0.18907166476726012      0.7319716273741455
5.94E9                   0.2513585202153054       0.7116180765213924
5.97E9                   0.31154648313336236      0.6859998410138721
6.0E9                    0.3691946019277385       0.6553300300646834
