% Model:              three_layers reality at 0.1mm.mph
% Version:            COMSOL 5.6.0.280
% Date:               Feb 23 2022, 17:34
% Table:              表格 1 - 全局计算 1
% freq (Hz)              real(emw.S11) (1)        imag(emw.S11) (1)
300000000                0.4067642493778898       -0.7745489717101063
330000000                0.32296588442993657      -0.8102908512960035
360000000                0.23625030394024427      -0.8372019783027002
390000000                0.14751529640167807      -0.8550398980850136
420000000                0.057684630169974764     -0.8636565092765498
450000000                -0.03230374708014203     -0.8630001228337495
480000000                -0.12150905527517396     -0.8531163047414538
510000000                -0.20899866993275484     -0.8341475427493183
540000000                -0.293858760574958       -0.8063317737730151
570000000                -0.3752045423804061      -0.7699998109287352
600000000                -0.45219007898664937     -0.7255717146836642
630000000                -0.524017560758734       -0.6735521604169122
660000000                -0.5899459781832124      -0.6145248630080176
690000000                -0.6492991095664256      -0.5491461278903198
720000000                -0.7014727451492484      -0.4781376068730689
750000000                -0.7459410760067717      -0.4022783447864548
780000000                -0.7822621830394074      -0.32239621113765926
810000000                -0.8100825712290537      -0.2393588167574662
840000000                -0.8291407041246042      -0.15406402123095597
870000000                -0.8392695047742875      -0.06743014121458425
900000000                -0.8403978012433451      0.019614027933707447
930000000                -0.8325507067631291      0.10613926258659351
960000000                -0.8158489370571845      0.19122591925234433
990000000                -0.7905070795928307      0.27397378777445525
1020000000               -0.756830841592446       0.3535116791338267
1050000000               -0.7152133152651804      0.42900664164847707
1080000000               -0.6661303098217716      0.49967270472251013
1110000000               -0.6101348101169022      0.5647790559074182
1140000000               -0.547850631284651       0.6236575645980762
1170000000               -0.47996534713112465     0.6757095743678301
1200000000               -0.40722257747825696     0.7204118952652951
1230000000               -0.33041372583480605     0.7573219375160135
1260000000               -0.2503692637815524      0.7860819386393253
1290000000               -0.16794966214876547     0.8064222469586776
1320000000               -0.08403607161856606     0.8181636355935255
1350000000               4.7914350705955403E-4    0.8212186322763924
1380000000               0.08470191453007524      0.8155918614115593
1410000000               0.1677459179963391       0.8013794057120353
1440000000               0.2487418655243051       0.7787672052931968
1470000000               0.3268465368778438       0.7480285221728432
1500000000               0.4012514637779919       0.7095205076796121
1530000000               0.4711911771757885       0.6636799191340068
1560000000               0.5359509367527029       0.6110180403492995
1590000000               0.5948738680948228       0.5521148679367021
1620000000               0.6473674404728534       0.48761263192754484
1650000000               0.6929092259611146       0.4182087249785288
1680000000               0.7310518888660863       0.34464811941511825
1710000000               0.7614273633094535       0.26771535508048955
1740000000               0.7837501855207134       0.1882261842935596
1770000000               0.7978199566782632       0.10701896223303567
1800000000               0.8035229214534095       0.024945872171196377
1830000000               0.8008326567324769       -0.05713592462643463
1860000000               0.7898098745331087       -0.1383731255690111
1890000000               0.7706013525202476       -0.21792502319580875
1920000000               0.7434380148550755       -0.2949720579585832
1950000000               0.7086321950812448       -0.3687241091716565
1980000000               0.6665741210459466       -0.43842845278683246
2010000000               0.6177276686930218       -0.5033773244984882
2040000000               0.5626254355577228       -0.5629150393386941
2070000000               0.5018631835776282       -0.6164446348094539
2100000000               0.4360936904311437       -0.663434022657937
2130000000               0.366020023333687        -0.7034216505468085
2.16E9                   0.2923882029785371       -0.7360216786332106
2.19E9                   0.21597915660208003      -0.7609286464344595
2.22E9                   0.13759978324987135      -0.7779215087742524
2.25E9                   0.05807292615642652      -0.7868667203757866
2.28E9                   -0.021773819058105562    -0.7877197522081215
2.31E9                   -0.10112008992074079     -0.7805241614950618
2.34E9                   -0.17916438933378115     -0.7654074419087782
2.37E9                   -0.25513346971870815     -0.7425737474756414
2.4E9                    -0.32828768358137045     -0.7122951642433589
2.43E9                   -0.3979221245861367      -0.6749044821914528
2.46E9                   -0.46336581271776556     -0.6307919281136147
2.49E9                   -0.5239824328074877      -0.5804058618183334
2.52E9                   -0.5791749315070306      -0.5242548789442918
2.55E9                   -0.628393678837308       -0.4629081776772564
2.58E9                   -0.6711460855412764      -0.396992481735183
2.61E9                   -0.7070054858601066      -0.3271856718404811
2.64E9                   -0.7356180680634652      -0.254208283779133
2.67E9                   -0.7567076256102364      -0.17881407387203382
2.7E9                    -0.7700784315067531      -0.10178044477028277
2.73E9                   -0.7756166563742976      -0.0238991071660266
2.76E9                   -0.7732906687520806      0.054032906936235796
2.79E9                   -0.7631504322353252      0.1312218760031756
2.82E9                   -0.7453261165500272      0.2068856873082016
2.85E9                   -0.7200259813217755      0.28026181092176017
2.88E9                   -0.6875335637444767      0.3506149366272981
2.91E9                   -0.6482041930465954      0.4172442420677607
2.94E9                   -0.6024608565834896      0.47949024733596596
2.97E9                   -0.5507894491213867      0.5367412040606377
3.0E9                    -0.4937334453098001      0.5884389647183261
3.03E9                   -0.43188804392780167     0.6340842791127512
3.06E9                   -0.36589384048232615     0.6732414688426411
3.09E9                   -0.29643009142839144     0.7055424366911764
3.12E9                   -0.224207638802993       0.7306899751578788
3.15E9                   -0.1499615674129638      0.7484603470160647
3.18E9                   -0.07444366846189468     0.7587051194609526
3.21E9                   0.0015852170632943087    0.7613522419295883
3.24E9                   0.07736290413817262      0.7564063648745514
3.27E9                   0.15213355061519318      0.7439484020279049
3.3E9                    0.2251552604732334       0.7241343417115808
3.33E9                   0.29570754033848684      0.6971933136629306
3.36E9                   0.36309854524059787      0.6634249176036233
3.39E9                   0.4266720453243011       0.6231958198934051
3.42E9                   0.4858140375121755       0.5769356270709186
3.45E9                   0.5399589157556187       0.5251320520703452
3.48E9                   0.5885951027234724       0.46832540233664854
3.51E9                   0.6312700377228169       0.4071024399758126
3.54E9                   0.6675944144365087       0.34208969198838496
3.57E9                   0.697245572005847        0.27394632023496274
3.6E9                    0.7199699661329181       0.20335669085570185
3.63E9                   0.7355846824572417       0.13102280445534395
3.66E9                   0.7439779973929821       0.05765675602741223
3.69E9                   0.7451090345533071       -0.016026614251218894
3.72E9                   0.7390066015149529       -0.0893167385389435
3.75E9                   0.7257673199813812       -0.16151389373035846
3.78E9                   0.7055531846321895       -0.23193524690723125
3.81E9                   0.6785887042701759       -0.29992032986721956
3.84E9                   0.6451577896321059       -0.3648359485706474
3.87E9                   0.6056005438970615       -0.42608059582298835
3.9E9                    0.5603100709677431       -0.4830885003778261
3.93E9                   0.5097293387311929       -0.535333490179908
3.96E9                   0.45434803318350686      -0.5823328473726093
3.99E9                   0.3946992449689152       -0.6236512755020369
4.02E9                   0.3313557763410794       -0.6589049960255032
4.05E9                   0.26492586545193486      -0.6877658720013488
4.08E9                   0.1960481938762312       -0.709965359701782
4.11E9                   0.12538614953353502      -0.7252980415272641
4.14E9                   0.053621427256043575     -0.7336245048486489
4.17E9                   -0.018552866099930655    -0.7348733904670799
4.2E9                    -0.09043939291118264     -0.7290425186593921
4.23E9                   -0.16134384560519166     -0.7161990850456161
4.26E9                   -0.23058211681246155     -0.6964789825006908
4.29E9                   -0.29748726212202997     -0.6700853380186031
4.32E9                   -0.3614161903789237      -0.637286354655755
4.35E9                   -0.42175605169565317     -0.598412527431317
4.38E9                   -0.47793030566172895     -0.553853272618292
4.41E9                   -0.5294044441660195      -0.5040529859957765
4.44E9                   -0.5756913234523452      -0.4495065360730812
4.47E9                   -0.6163560391658657      -0.3907542048190831
4.5E9                    -0.6510202642339213      -0.32837610743399576
4.53E9                   -0.6793659668028349      -0.26298614799503905
4.56E9                   -0.7011384346433163      -0.19522559345928775
4.59E9                   -0.7161485522414248      -0.12575636960669986
4.62E9                   -0.724274304628408       -0.05525419496496863
4.65E9                   -0.725461513938096       0.01559833078190581
4.68E9                   -0.7197238446207953      0.08611858119049842
4.71E9                   -0.7071421331963142      0.15563062394734642
4.74E9                   -0.6878631013607094      0.22347176425291113
4.77E9                   -0.6620974951889869      0.2889988933391214
4.8E9                    -0.6301176643427985      0.35159463437862293
4.83E9                   -0.5922545669393132      0.410673264807231
4.86E9                   -0.5488941726052549      0.4656863626386105
4.89E9                   -0.5004732469725217      0.5161280874042321
4.92E9                   -0.4474745343522041      0.5615399791324269
4.95E9                   -0.3904214022925918      0.601515152350376
4.98E9                   -0.32987205926019536     0.6357017801879931
5.01E9                   -0.26641349286617677     0.6638058034379114
5.04E9                   -0.20065529195576115     0.6855928535627975
5.07E9                   -0.1332235058362757      0.7008894369559311
5.1E9                    -0.06475465662257758     0.7095834772465202
5.13E9                   0.004110038544754247     0.7116243385583672
5.16E9                   0.07273024531087469      0.7070224433001582
5.19E9                   0.14047195086790795      0.6958485510081767
5.22E9                   0.20671283692339754      0.678232694333051
5.25E9                   0.27084762314868094      0.6543627043508903
5.28E9                   0.3322933448866168       0.624482232941089
5.31E9                   0.390494455663813        0.5888882114405152
5.34E9                   0.44492761000460224      0.5479277593066839
5.37E9                   0.4951060044840132       0.5019946373461369
5.4E9                    0.5405832236342223       0.451525387739417
5.43E9                   0.5809566186334288       0.39699529753585217
5.46E9                   0.6158703051192639       0.33891427057836526
5.49E9                   0.6450178818706181       0.2778226207237169
5.52E9                   0.6681449450708975       0.21428673500027628
5.55E9                   0.6850514178119657       0.14889451840944104
5.58E9                   0.6955936503771174       0.0822505289206536
5.61E9                   0.6996861894767868       0.014970739754753977
5.64E9                   0.6973030760668717       -0.05232308058194826
5.67E9                   0.688478520932905        -0.11900931064613779
5.7E9                    0.6733068326980075       -0.18447260896954631
5.73E9                   0.6519415361847329       -0.24811005105772246
5.76E9                   0.6245937082353056       -0.3093370699006718
5.79E9                   0.5915296439449174       -0.36759303967617446
5.82E9                   0.5530680121101036       -0.42234642643726866
5.85E9                   0.5095766429643304       -0.47309952122122845
5.88E9                   0.46146902483712576      -0.519392827022273
5.91E9                   0.4092005071795791       -0.5608091693109277
5.94E9                   0.3532641553158589       -0.5969775509433242
5.97E9                   0.2941861954894078       -0.6275767082347641
6.0E9                    0.23252101981645731      -0.6523382755062782
