% Model:              three_layers reality at 0.1mm.mph
% Version:            COMSOL 5.6.0.280
% Date:               Feb 23 2022, 09:13
% Table:              表格 1 - 全局计算 1
% freq (Hz)              real(emw.S11) (1)        imag(emw.S11) (1)
300000000                0.6053319746828905       -0.7418408592043596
330000000                0.5380355128491464       -0.7912525974923836
360000000                0.4668346893753551       -0.8346230769583798
390000000                0.39225674515699166      -0.8716467595296096
420000000                0.31485498972059356      -0.9020629605674003
450000000                0.23520456401222242      -0.9256584477563667
480000000                0.15389803463062998      -0.9422695389554641
510000000                0.07154085313203336      -0.9517837187432951
540000000                -0.01125328319008645     -0.9541407869975688
570000000                -0.09386713464193655     -0.9493335496679907
600000000                -0.1756846491818637      -0.9374080595983101
630000000                -0.256095684491073       -0.9184634152540927
660000000                -0.3345006855575971      -0.8926511254812033
690000000                -0.4103152816980995      -0.8601740499910249
720000000                -0.48297476786102367     -0.8212849270161693
750000000                -0.5519384351439949      -0.776284501877182
780000000                -0.6166937166954387      -0.7255192725983975
810000000                -0.6767601156901719      -0.6693788716327987
840000000                -0.7316928846749264      -0.6082931049470407
870000000                -0.7810864266427253      -0.542728672459903
900000000                -0.8245773901381206      -0.4731855968290109
930000000                -0.8618474340009995      -0.40019338893948464
960000000                -0.8926256389071693      -0.32430698176062817
990000000                -0.916690546620075       -0.24610246523794344
1020000000               -0.9338718104758169      -0.16617265703066497
1050000000               -0.9440514440131192      -0.08512254530581505
1080000000               -0.9471646581390951      -0.003564640495121853
1110000000               -0.9432002805922487      0.07788572597959516
1140000000               -0.9322007551201905      0.15861511778058057
1170000000               -0.9142617213357959      0.23801668643645219
1200000000               -0.8895311797886954      0.31549480272240354
1230000000               -0.858208250308725       0.39046958958227923
1260000000               -0.8205415351180009      0.4623813202401662
1290000000               -0.7768271013629481      0.5306946469232373
1320000000               -0.7274061011016011      0.5949026266457627
1350000000               -0.6726620493768238      0.6545305131799174
1380000000               -0.6130177839883917      0.7091392859749512
1410000000               -0.5489321327601556      0.7583288896384571
1440000000               -0.4808963166228738      0.8017411598304067
1470000000               -0.4094301182540413      0.8390624147606254
1500000000               -0.33507784809420527     0.8700256939128224
1530000000               -0.2584041405156465      0.8944126290375419
1560000000               -0.17998961401578858     0.9120549354505629
1590000000               -0.10042643001291528     0.9228355148396032
1620000000               -0.020313785132830733    0.9266891639846883
1650000000               0.059746628027020424     0.9236028869353463
1680000000               0.13915515683574622      0.9136158112911517
1710000000               0.21731868697816772      0.8968187122560011
1740000000               0.2936550696904405       0.8733531510597361
1770000000               0.3675974451814714       0.8434102371596869
1800000000               0.4385984309549855       0.8072290262665096
1830000000               0.5061341448423026       0.7650945688693526
1860000000               0.569708034590841        0.7173356261089541
1890000000               0.6288544870097301       0.664322072308724
1920000000               0.6831421922296941       0.6064620051682325
1950000000               0.7321772400996139       0.544198586791518
1980000000               0.775605928375174        0.47800664003631754
2010000000               0.8131172643626492       0.4083890263341874
2040000000               0.8444451442508897       0.3358728321598914
2070000000               0.8693701968328643       0.2610053922292265
2100000000               0.88772128080874         0.18435017819681654
2130000000               0.8993766275001498       0.10648258133763328
2.16E9                   0.9042646227770863       0.02798561783618137
2.19E9                   0.9023642236826671       -0.05055441608347623
2.22E9                   0.8937050052985708       -0.12855231260225694
2.25E9                   0.8783668318770659       -0.20542831738005085
2.28E9                   0.8564791436091579       -0.2806124607891711
2.31E9                   0.8282198497388408       -0.35354881570545377
2.34E9                   0.7938138266043598       -0.42369962852101745
2.37E9                   0.7535310412429695       -0.4905492609265866
2.4E9                    0.707684352481865        -0.5536078905319893
2.43E9                   0.6566270594060338       -0.6124149558260301
2.46E9                   0.6007502475991076       -0.6665423748662365
2.49E9                   0.5404799338794692       -0.7155975786234443
2.52E9                   0.47627397116404585      -0.7592263663745052
2.55E9                   0.4086186803511742       -0.7971155412754389
2.58E9                   0.3380252129295411       -0.8289952612291371
2.61E9                   0.2650256835780397       -0.8546410502102294
2.64E9                   0.19016912629332217      -0.8738754399541762
2.67E9                   0.11401732439871318      -0.8865692319720426
2.7E9                    0.03714055595516896      -0.892642379454154
2.73E9                   -0.03988671076492967     -0.892064491046426
2.76E9                   -0.1164901408387781      -0.8848549584158665
2.79E9                   -0.1920998450371476      -0.8710827094172185
2.82E9                   -0.26615465061824706     -0.8508655896093948
2.85E9                   -0.3381062996527806      -0.8243693766884079
2.88E9                   -0.4074235438729743      -0.7918064348083766
2.91E9                   -0.4735961051681768      -0.7534340184642508
2.94E9                   -0.5361384714191036      -0.7095522384666174
2.97E9                   -0.5945934984635959      -0.660501705288977
3.0E9                    -0.648535790106649       -0.6066608679354549
3.03E9                   -0.6975748300459215      -0.5484430688688603
3.06E9                   -0.7413578411760825      -0.48629333820211446
3.09E9                   -0.7795723502039655      -0.4206849523822116
3.12E9                   -0.81194843775528        -0.3521157847120253
3.15E9                   -0.838260656803493       -0.28110447683217793
3.18E9                   -0.8583296051734814      -0.20818646148174247
3.21E9                   -0.8720231405413218      -0.13390986845124256
3.24E9                   -0.8792572295996618      -0.05883134598018369
3.27E9                   -0.8799964258922363      0.016488169195680868
3.3E9                    -0.8742539739476449      0.09148770002994543
3.33E9                   -0.8620915402254629      0.16561046238409444
3.36E9                   -0.8436185743169832      0.23830805022983578
3.39E9                   -0.8189913066554072      0.30904454052152597
3.42E9                   -0.7884113917407336      0.3773004858779353
3.45E9                   -0.7521242086564663      0.44257676402614177
3.48E9                   -0.7104168333936992      0.5043982540258205
3.51E9                   -0.6636157003027723      0.5623173104602137
3.54E9                   -0.6120839728766787      0.6159170082770922
3.57E9                   -0.5562186469000763      0.6648141329714242
3.6E9                    -0.4964474116504416      0.7086618932823348
3.63E9                   -0.4332252973113544      0.7471523364703807
3.66E9                   -0.3670311385024686      0.7800184497131792
3.69E9                   -0.29836388508122724     0.807035934750103
3.72E9                   -0.22773879192071744     0.8280246464999472
3.75E9                   -0.15568351960361612     0.84284968984725
3.78E9                   -0.08273417738197253     0.8514221722680484
3.81E9                   -0.009431339292824782    0.8536996131413868
3.84E9                   0.0636839373593169       0.8496860138181781
3.87E9                   0.13607406375406228      0.8394315950587465
3.9E9                    0.20720881684478698      0.8230322101704384
3.93E9                   0.2765691597609646       0.8006284426340923
3.96E9                   0.3436509644426174       0.772404396539193
3.99E9                   0.4079686157897996       0.7385861873795099
4.02E9                   0.4690584754716934       0.6994401406729538
4.05E9                   0.5264821818435451       0.6552707070975338
4.08E9                   0.5798297608458832       0.6064181056596554
4.11E9                   0.6287225225561127       0.5532557102107203
4.14E9                   0.6728157192043327       0.49618719879639867
4.17E9                   0.7118009429658066       0.43564348912585493
4.2E9                    0.7454082455628787       0.3720794859868006
4.23E9                   0.7734079654379795       0.3059706681424623
4.26E9                   0.7956122521947115       0.23780954232036342
4.29E9                   0.8118762809551154       0.1681019916814147
4.32E9                   0.8220991517572888       0.09736354513631192
4.35E9                   0.8262244706760825       0.026115593204178313
4.38E9                   0.8242406105978362       -0.04511842428250776
4.41E9                   0.8161806507163526       -0.11581683326953934
4.44E9                   0.8021219952052416       -0.1854635175381553
4.47E9                   0.7821856733425527       -0.2535516614070181
4.5E9                    0.7565353255321192       -0.31958741646827893
4.53E9                   0.7253758822128464       -0.38309346552139206
4.56E9                   0.688951945295333        -0.44361245747721556
4.59E9                   0.6475458844710382       -0.5007102877447436
4.62E9                   0.6014756632870815       -0.553979200080059
4.65E9                   0.5510924122066703       -0.6030406875871235
4.68E9                   0.4967777675870796       -0.6475481728762902
4.71E9                   0.4389409967515331       -0.6871894495208926
4.74E9                   0.378015929857898        -0.7216888690620986
4.77E9                   0.3144577197253158       -0.7508092591638303
4.8E9                    0.24873945111896437      -0.7743535595676369
4.83E9                   0.18134862225535003      -0.7921661629829893
4.86E9                   0.11278352292954691      -0.804133949005186
4.89E9                   0.04354953607676198      -0.8101870006652216
4.92E9                   -0.025844608237524904    -0.8102989958544091
4.95E9                   -0.0948905955908554      -0.804487269345724
4.98E9                   -0.16308427518956387     -0.7928125452997152
5.01E9                   -0.22992936185170426     -0.7753783444230604
5.04E9                   -0.2949410622217542      -0.7523300739696664
5.07E9                   -0.3576495979184207      -0.7238538120175138
5.1E9                    -0.4176036012244991      -0.6901747996123104
5.13E9                   -0.47437336192914653     -0.6515556551233304
5.16E9                   -0.5275539058863215      -0.6082943248806095
5.19E9                   -0.5767678864638303      -0.5607217834901748
5.22E9                   -0.6216682692780312      -0.5091994971989654
5.25E9                   -0.6619407889874844      -0.4541166655089695
5.28E9                   -0.6973061561876348      -0.3958872600203931
5.31E9                   -0.7275219938864851      -0.33494688423787283
5.34E9                   -0.7523844868753893      -0.27174948239002555
5.37E9                   -0.7717297328154761      -0.20676392750666028
5.4E9                    -0.7854347894018715      -0.14047051838687766
5.43E9                   -0.7934184158164559      -0.07335741301500426
5.46E9                   -0.7956415085863094      -0.005917023045189497
5.49E9                   -0.7921072321342423      0.06135760789507481
5.52E9                   -0.7828608437906412      0.12797641986097305
5.55E9                   -0.7679892128354968      0.19345592306563358
5.58E9                   -0.7476200338198687      0.2573227304220161
5.61E9                   -0.7219207362686151      0.3191170092557221
5.64E9                   -0.6910970958817348      0.3783958236017631
5.67E9                   -0.6553915565469499      0.43473633733733785
5.7E9                    -0.6150812775157262      0.48773884870118583
5.73E9                   -0.5704759254901794      0.5370296288475241
5.76E9                   -0.5219152358279485      0.5822635414424351
5.79E9                   -0.46976636942590333     0.6231264260627799
5.82E9                   -0.41442109126704124     0.6593372338836598
5.85E9                   -0.3562927939433257      0.6906499078663838
5.88E9                   -0.2958133864796901      0.7168550006213978
5.91E9                   -0.2334300673951394      0.7377810220487266
5.94E9                   -0.16960200177431003     0.7532955075037117
5.97E9                   -0.10479692479314906     0.7633057970482265
6.0E9                    -0.03948769703158366     0.7677595180257901
