% Model:              three_layers reality at 0.1mm.mph
% Version:            COMSOL 5.6.0.280
% Date:               Mar 11 2022, 15:18
% Table:              表格 1 - 全局计算 1
% freq (Hz)              real(emw.S11) (1)        imag(emw.S11) (1)
300000000                0.5730789507688971       -0.7600606232065914
330000000                0.4926509513229709       -0.8113254669879965
360000000                0.41609825456477234      -0.851824698622774
390000000                0.3363613795201632       -0.8852040510118651
420000000                0.2540902508248323       -0.9112154418992608
450000000                0.16994225879989885      -0.9296688263522679
480000000                0.08459607086306349      -0.9404312882352581
510000000                -0.0012577247804369308   -0.9434300331464857
540000000                -0.08692239836627387     -0.9386539288315072
570000000                -0.17170098246400356     -0.926154375823532
600000000                -0.2549022375629441      -0.9060455300234329
630000000                -0.3358466223618039      -0.8785038930862119
660000000                -0.413872209580046       -0.8437672847145866
690000000                -0.48834049133068264     -0.8021332114001926
720000000                -0.5586420151342979      -0.7539566485545504
750000000                -0.6242017941369643      -0.6996472570205031
780000000                -0.6844844358130099      -0.6396660588715447
810000000                -0.7389989343771335      -0.5745216031155097
840000000                -0.787303074542143       -0.5047656577631613
870000000                -0.8290073989873094      -0.4309884692300392
900000000                -0.8637786947173451      -0.3538136355702161
930000000                -0.8913429585162727      -0.2738926464224089
960000000                -0.911487808421613       -0.19189914461969237
990000000                -0.9240643135608991      -0.10852297002178767
1020000000               -0.9289882219432845      -0.02446404838349483
1050000000               -0.9262405732200952      0.05957380986502753
1080000000               -0.9158676908365561      0.14288913499004782
1110000000               -0.897980555814436       0.22478898103223105
1140000000               -0.8727535720360784      0.30459500141637375
1170000000               -0.8404227402750177      0.3816493541090762
1200000000               -0.8012832655050603      0.45532037503424033
1230000000               -0.7556866284673073      0.5250079635624023
1260000000               -0.7040371586330902      0.5901486274331561
1290000000               -0.6467881507784996      0.6502201402697664
1320000000               -0.5844375723507896      0.7047457698132243
1350000000               -0.5175234118965236      0.7532980422894178
1380000000               -0.4466187219289731      0.7955020137619253
1410000000               -0.3723264114993805      0.831038026461945
1440000000               -0.29527384459266454     0.8596439345704496
1470000000               -0.2161073003744255      0.8811167905430315
1500000000               -0.13548635139285778     0.8953139889798165
1530000000               -0.05407821354168618     0.9021538714795002
1560000000               0.02744788017497193      0.9016158010364612
1590000000               0.10842623181172968      0.8937397196487451
1620000000               0.18820011109507107      0.8786252073998977
1650000000               0.2661270245314757       0.8564300650153056
1680000000               0.34158378199598904      0.8273684453027663
1710000000               0.4139713249787189       0.7917085616697462
1740000000               0.4827192852098218       0.7497700037882575
1770000000               0.547290244882857        0.7019206927307909
1800000000               0.6071836754251564       0.6485735082248201
1830000000               0.6619395335430966       0.5901826222362353
1860000000               0.7111414980749985       0.5272395727035166
1890000000               0.7544198335869847       0.46026911182474867
1920000000               0.7914538701014746       0.3898248626862054
1950000000               0.821974090868708        0.31648481777723864
1980000000               0.8457638227436232       0.24084671221699583
2010000000               0.862660525858209        0.16352330402521084
2040000000               0.8725566814767647       0.085137592868137
2070000000               0.8754002788181346       0.0063180079581938026
2100000000               0.8711949032897487       -0.07230640475875505
2130000000               0.8599994304013407       -0.1501107668421953
2.16E9                   0.8419273311711333       -0.22647909480951942
2.19E9                   0.817145596429155        -0.30080894277448145
2.22E9                   0.7858732890515387       -0.372515933714488
2.25E9                   0.7483797345491336       -0.4410381538470657
2.28E9                   0.7049823618201003       -0.505840385943951
2.31E9                   0.6560442065557442       -0.5664181595335366
2.34E9                   0.601971089564081        -0.6223015981418328
2.37E9                   0.5432084803808597       -0.6730590458879544
2.4E9                    0.48023805200429365      -0.7183004567671376
2.43E9                   0.4135739252626328       -0.7576805272945956
2.46E9                   0.3437585925614853       -0.7909015430698516
2.49E9                   0.27135850654867255      -0.8177158878562436
2.52E9                   0.19695933004505317      -0.8379281303569963
2.55E9                   0.12116088726732316      -0.851396568814109
2.58E9                   0.04457193641434181      -0.8580341089830971
2.61E9                   -0.03219502172772817     -0.8578084154699233
2.64E9                   -0.10852864873694906     -0.850741423598429
2.67E9                   -0.18382323089562452     -0.8369084626392059
2.7E9                    -0.2574827599285218      -0.8164372929310899
2.73E9                   -0.3289248927975488      -0.7895072202758471
2.76E9                   -0.3975850796535829      -0.7563482015666501
2.79E9                   -0.4629209846403546      -0.7172396786011217
2.82E9                   -0.5244171078426633      -0.6725088796409453
2.85E9                   -0.5815893915108777      -0.6225284613270652
2.88E9                   -0.6339895939338739      -0.5677135086836574
2.91E9                   -0.6812092847999536      -0.508517993511459
2.94E9                   -0.7228833910599706      -0.44543080786313527
2.97E9                   -0.7586932697710967      -0.3789714714411539
3.0E9                    -0.7883693051941736      -0.3096855864672439
3.03E9                   -0.8116930313006044      -0.23814009523947424
3.06E9                   -0.828498778788953       -0.16491838609971182
3.09E9                   -0.8386748435152415      -0.09061529019149475
3.12E9                   -0.8421641727204803      -0.015832011854902104
3.15E9                   -0.838964567234267       0.05882896302302704
3.18E9                   -0.8291284012733398      0.13276893532367604
3.21E9                   -0.8127618658107096      0.20539799127365888
3.24E9                   -0.7900237464424177      0.2761398856499855
3.27E9                   -0.7611237515501617      0.3444367649973186
3.3E9                    -0.7263204112567223      0.4097536884711719
3.33E9                   -0.685918571993137       0.47158290641531925
3.36E9                   -0.6402665152392832      0.5294478602791962
3.39E9                   -0.5897527324616966      0.5829068706475727
3.42E9                   -0.5348023910924272      0.6315564842052578
3.45E9                   -0.4758735288223007      0.6750344544316175
3.48E9                   -0.4134530155266394      0.713022334963463
3.51E9                   -0.34805232359926475     0.7452476690492005
3.54E9                   -0.2802031486106206      0.7714857629229419
3.57E9                   -0.21045292267464719     0.7915610356750962
3.6E9                    -0.1393602627891676      0.8053479428694843
3.63E9                   -0.06749039576377794     0.8127714758160087
3.66E9                   0.00458940012493958      0.813807242930629
3.69E9                   0.07631429892915201      0.8084811437496363
3.72E9                   0.14712634142872025      0.7968686494854179
3.75E9                   0.21647872828669623      0.7790937063953581
3.78E9                   0.2838399634842947       0.7553272795627667
3.81E9                   0.3486978220509041       0.7257855550053016
3.84E9                   0.4105631170550346       0.690727818128027
3.87E9                   0.46897324159686526      0.6504540267476955
3.9E9                    0.5234954603824861       0.6053020984045034
3.93E9                   0.5737299249144029       0.5556449346822658
3.96E9                   0.6193123863455541       0.50188721016907
3.99E9                   0.6599165823463956       0.4444619599727089
4.02E9                   0.6952562799995768       0.38382700588903085
4.05E9                   0.7250869653557324       0.3204612660728028
4.08E9                   0.7492071818445297       0.2548609934347314
4.11E9                   0.7674595307928279       0.1875359832448696
4.14E9                   0.7797313551711902       0.11900578053131242
4.17E9                   0.7859551292327425       0.049795905975026866
4.2E9                    0.7861085719494728       -0.019565891416295732
4.23E9                   0.7802144931863947       -0.08855335109610096
4.26E9                   0.7683403732046511       -0.1566453814736636
4.29E9                   0.7505976722097156       -0.22332969217119097
4.32E9                   0.7271408684672395       -0.28810635982852956
4.35E9                   0.6981662287916844       -0.35049130693296143
4.38E9                   0.6639103200151436       -0.4100196753254287
4.41E9                   0.6246482710998535       -0.4662490808879655
4.44E9                   0.5806917923901461       -0.5187627394381144
4.47E9                   0.5323869530895229       -0.5671724536301663
4.5E9                    0.48011171403979064      -0.6111214455409855
4.53E9                   0.42427321265629153      -0.6502870122019175
4.56E9                   0.36530480148572037      -0.6843829738911978
4.59E9                   0.30366285012224936      -0.7131618804180997
4.62E9                   0.2398233303087821       -0.7364169400540679
4.65E9                   0.17427821331613416      -0.7539836396197205
4.68E9                   0.10753171627133079      -0.7657410310272418
4.71E9                   0.04009643780288741      -0.7716126688017837
4.74E9                   -0.027510576394144694    -0.7715671922824937
4.77E9                   -0.0947718007170046      -0.7656185539948803
4.8E9                    -0.16117319798947813     -0.7538259004231346
4.83E9                   -0.2262081629451247      -0.7362931122701666
4.86E9                   -0.2893814187182579      -0.7131680092203734
4.89E9                   -0.35021284460726554     -0.6846412208766056
4.92E9                   -0.4082412105095883      -0.6509447233356512
4.95E9                   -0.4630277891155603      -0.6123500411975854
4.98E9                   -0.5141598121589305      -0.5691661181958677
5.01E9                   -0.5612537342294326      -0.521736865177072
5.04E9                   -0.6039582665383632      -0.4704384009998732
5.07E9                   -0.641957144237475       -0.4156760090339285
5.1E9                    -0.6749715940277462      -0.35788083879485166
5.13E9                   -0.7027624739943806      -0.2975063882868757
5.16E9                   -0.7251320645686445      -0.2350248073187982
5.19E9                   -0.7419254982008332      -0.17092306394417
5.22E9                   -0.753031823881642       -0.10569901467169913
5.25E9                   -0.7583847091419792      -0.03985741392175865
5.28E9                   -0.7579627843002541      0.02609410840474784
5.31E9                   -0.7517896313011418      0.09164907737024729
5.34E9                   -0.7399334146351464      0.1563061884489343
5.37E9                   -0.722506148061226       0.21957328016624703
5.4E9                    -0.6996625916323084      0.28097122864834784
5.43E9                   -0.6715987795738132      0.34003772158501877
5.46E9                   -0.6385501894428601      0.3963308654768831
5.49E9                   -0.6007895740715723      0.44943258083487625
5.52E9                   -0.5586244877867091      0.4989517451335115
5.55E9                   -0.5123945461023158      0.5445270512334457
5.58E9                   -0.46246846284184095     0.5858295590615041
5.61E9                   -0.40924090999294327     0.6225649294687399
5.64E9                   -0.35312924258487144     0.6544753405163624
5.67E9                   -0.2945701231490618      0.6813410954653818
5.7E9                    -0.23401606852334078     0.702981935794117
5.73E9                   -0.17193193025330747     0.7192580683579295
5.76E9                   -0.10879131335911794     0.7300709047910847
5.79E9                   -0.045072942594450716    0.7353634976396567
5.82E9                   0.018743000787446996     0.7351206504324311
5.85E9                   0.08217853112997027      0.7293686834948676
5.88E9                   0.14476144730902904      0.7181748535372563
5.91E9                   0.2060288074900834       0.7016464455209928
5.94E9                   0.26553025087273474      0.679929570881225
5.97E9                   0.3228311450830752       0.653207711650954
6.0E9                    0.3775155530484698       0.6217000457601828
