% Model:              three_layers reality at 0.1mm.mph
% Version:            COMSOL 5.6.0.280
% Date:               Mar 2 2022, 17:17
% Table:              表格 1 - 全局计算 1
% freq (Hz)              real(emw.S11) (1)        imag(emw.S11) (1)
300000000                0.4771989633752206       -0.8702807710600793
330000000                0.38174631590134356      -0.915877801891376
360000000                0.28204290327537046      -0.9510332991126934
390000000                0.1792271237883467       -0.9753621102637968
420000000                0.07447146135321994      -0.988602790643275
450000000                -0.031031037248420646    -0.9906206370324524
480000000                -0.13608054636741543     -0.9814091935791096
510000000                -0.23948432940438585     -0.9610902212665802
540000000                -0.34007051730610716     -0.9299121388772019
570000000                -0.4367016278622198      -0.8882469600926828
600000000                -0.5282876600287262      -0.8365857687672174
630000000                -0.6137986045834993      -0.7755327912682946
660000000                -0.6922762191469429      -0.705798141951405
690000000                -0.7628449260082428      -0.6281893336157669
720000000                -0.8247217020663853      -0.5436016601058936
750000000                -0.8772248433302683      -0.45300757213095494
780000000                -0.9197815011941544      -0.35744517949589594
810000000                -0.9519339034280613      -0.2580060238784903
840000000                -0.973344190209205       -0.15582227466804344
870000000                -0.9837978134487442      -0.05205350723388458
900000000                -0.9832054664896657      0.0521267729788388
930000000                -0.9716035302005654      0.1555446945852219
960000000                -0.9491530406941993      0.2570395073215321
990000000                -0.9161372027279393      0.3554768288603939
1020000000               -0.8729574911512229      0.4497614932642973
1050000000               -0.8201284002860704      0.5388498495309968
1080000000               -0.7582709175231497      0.6217613676937224
1110000000               -0.6881048125088873      0.6975894205250938
1140000000               -0.6104398468539292      0.7655111211656291
1170000000               -0.5261660211895842      0.8247961105849602
1200000000               -0.4362429863918249      0.8748142035920673
1230000000               -0.3416887539879448      0.9150418176615531
1260000000               -0.24356784673110649     0.9450671251725251
1290000000               -0.1429790347456672      0.9645938860775429
1320000000               -0.04104280446257694     0.9734439348563207
1350000000               0.061111291933476336     0.9715583119875583
1380000000               0.16235726056435773      0.9589970463869645
1410000000               0.261585120838617        0.9359376108066613
1440000000               0.3577130536578002       0.9026720869929474
1470000000               0.4496991116366946       0.8596030913224612
1500000000               0.5365523679342564       0.8072385244776323
1530000000               0.6173433891648519       0.7461852204517573
1560000000               0.691213927781618        0.6771415806832787
1590000000               0.7573857400949763       0.6008892883421336
1620000000               0.8151684475132837       0.5182842057009952
1650000000               0.8639663705312408       0.43024656414743445
1680000000               0.9032842773626435       0.33775056167362366
1710000000               0.9327320017828562       0.2418134865696589
1740000000               0.9520278974837013       0.1434844888442259
1770000000               0.9610011092311042       0.043833122121374204
1800000000               0.9595926539821673       -0.05606222110302742
1830000000               0.9478553180214377       -0.15512585918695984
1860000000               0.9259523889693139       -0.25229623717219457
1890000000               0.894155254185614        -0.3465370937989636
1920000000               0.8528399094843995       -0.4368482710529077
1950000000               0.8024824340928092       -0.5222760654369352
1980000000               0.7436534988314712       -0.6019230313002569
2010000000               0.6770119838629892       -0.6749571608344072
2040000000               0.603297788023691        -0.7406203844132232
2070000000               0.5233239107145379       -0.7982363588376646
2100000000               0.43796787366348333      -0.8472175394511243
2130000000               0.34816251544327365      -0.8870715598912137
2.16E9                   0.2548861258948426       -0.9174069574427666
2.19E9                   0.15915178482026793      -0.9379382534980126
2.22E9                   0.06199564534492144      -0.9484902779164099
2.25E9                   -0.035536172868415504    -0.9490013540743926
2.28E9                   -0.1324022804682386      -0.9395245257397344
2.31E9                   -0.22758193203699398     -0.9202255688557477
2.34E9                   -0.3200906781382547      -0.8913765534745146
2.37E9                   -0.4089930905885735      -0.8533448256092595
2.4E9                    -0.4934098135054245      -0.8065795289382438
2.43E9                   -0.5725182902584565      -0.751599831581073
2.46E9                   -0.6455500370219677      -0.6889886617416153
2.49E9                   -0.7117894459689831      -0.6193924263061813
2.52E9                   -0.7705777121333741      -0.543523396224544
2.55E9                   -0.8213218581331845      -0.46216030048227963
2.58E9                   -0.8635060991245187      -0.3761444995621037
2.61E9                   -0.8967024789411857      -0.28637172830290747
2.64E9                   -0.9205789792582794      -0.1937809117363621
2.67E9                   -0.9349046918311716      -0.09934171086140824
2.7E9                    -0.9395524241819034      -0.004041931077518652
2.73E9                   -0.9344993119700583      0.09112464819681927
2.76E9                   -0.9198259205126336      0.18516983583105096
2.79E9                   -0.8957141557071939      0.2771219659074509
2.82E9                   -0.8624441711480935      0.3660362378245866
2.85E9                   -0.8203903754910487      0.4510044787217224
2.88E9                   -0.7700166027935927      0.5311643225425909
2.91E9                   -0.7118704936641139      0.6057077767970945
2.94E9                   -0.6465771345397171      0.6738891321446819
2.97E9                   -0.5748320087632873      0.7350321613293231
3.0E9                    -0.49739332208238207     0.788536551531384
3.03E9                   -0.41507377448660343     0.8338835164053422
3.06E9                   -0.328731858845085       0.8706405396671588
3.09E9                   -0.23926277387205763     0.8984652102992432
3.12E9                   -0.14758904409171977     0.9171081194720614
3.15E9                   -0.054650942240541414    0.9264148004832231
3.18E9                   0.038603190282036515     0.9263267045061314
3.21E9                   0.13122663189986597      0.9168812157520366
3.24E9                   0.2222838901709201       0.8982107185843905
3.27E9                   0.31086014993702205      0.8705407352278036
3.3E9                    0.3960704844281795       0.834187155437137
3.33E9                   0.47706875731994425      0.7895525791055968
3.36E9                   0.5530561440169198       0.7371217904578503
3.39E9                   0.6232891956294044       0.6774563803069976
3.42E9                   0.6870873591504876       0.6111885335912062
3.45E9                   0.7438398531033613       0.5390140062556864
3.48E9                   0.7930117823254129       0.46168433129409936
3.51E9                   0.8341493628777847       0.37999832036294
3.54E9                   0.8668841243751729       0.29479296431480206
3.57E9                   0.8909359683714531       0.20693387930895168
3.6E9                    0.9061149916315057       0.11730548751411707
3.63E9                   0.9123220316140185       0.02680115289574352
3.66E9                   0.9095479517618025       -0.0636864949903451
3.69E9                   0.8978717461077118       -0.15327482614547683
3.72E9                   0.877457596952834        -0.2410998700561145
3.75E9                   0.8485510621638312       -0.3263242171519591
3.78E9                   0.8114746018928365       -0.40814405751621285
3.81E9                   0.7666226801218958       -0.48579531207515203
3.84E9                   0.7144566882213251       -0.5585588880208741
3.87E9                   0.6554999192893516       -0.6257651833106043
3.9E9                    0.5903327552079544       -0.6867980579530726
3.93E9                   0.5195881092862964       -0.7410985493040965
3.96E9                   0.44394701830485633      -0.7881686004689238
3.99E9                   0.3641341438232905       -0.8275749805905188
4.02E9                   0.28091287218267863      -0.8589534218983165
4.05E9                   0.19507972345065508      -0.8820128274664072
4.08E9                   0.107457884864675        -0.8965392696257928
4.11E9                   0.018889837957233625     -0.902399439540694
4.14E9                   -0.06977079768519605     -0.8995432323451757
4.17E9                   -0.15766796767246805     -0.8880052410762871
4.2E9                    -0.24395214486506359     -0.8679050528574561
4.23E9                   -0.3277892721186366      -0.839446357069369
4.26E9                   -0.40836946342694946     -0.8029149605487153
4.29E9                   -0.4849153178822656      -0.7586758456917675
4.32E9                   -0.5566897728820123      -0.707169404891058
4.35E9                   -0.6230034708811388      -0.6489069524875215
4.38E9                   -0.6832216299806387      -0.5844655731787246
4.41E9                   -0.7367703969117207      -0.5144823321843567
4.44E9                   -0.7831426338358457      -0.43964785887108104
4.47E9                   -0.8219030622912522      -0.36069932380985054
4.5E9                    -0.8526926693271779      -0.2784128542018311
4.53E9                   -0.8752322779077443      -0.19359546564594793
4.56E9                   -0.889325196556074       -0.10707662153679345
4.59E9                   -0.8948588902093892      -0.01969955826675312
4.62E9                   -0.8918056519057945      0.06768747038756748
4.65E9                   -0.8802222979083425      0.15423987764494862
4.68E9                   -0.8602489487537215      0.2391252253773525
4.71E9                   -0.8321069845983259      0.3215314093516759
4.74E9                   -0.7960962653692486      0.40067449983818104
4.77E9                   -0.7525916821017148      0.47580622654729754
4.8E9                    -0.702039064271414       0.546221109887865
4.83E9                   -0.6449504276140561      0.6112632217216271
4.86E9                   -0.5818985281033666      0.6703325146208434
4.89E9                   -0.5135107024432625      0.7228906070942468
4.92E9                   -0.44046202199375106     0.7684658746183542
4.95E9                   -0.3634678524362147      0.8066576880065978
4.98E9                   -0.28327597747110095     0.8371396671319169
5.01E9                   -0.2006584946935579      0.8596618752139396
5.04E9                   -0.11640371219710328     0.8740519567361343
5.07E9                   -0.03130825736295737     0.8802153055235991
5.1E9                    0.053830447547762006     0.8781344196140188
5.13E9                   0.13822127672717724      0.86786763467562
5.16E9                   0.22108609061756967      0.8495474104256762
5.19E9                   0.3016661290905708       0.8233782724600011
5.22E9                   0.37922822813641344      0.7896344074013518
5.25E9                   0.4530709237555021       0.7486568169682988
5.28E9                   0.522530400512539        0.7008499039489648
5.31E9                   0.5869861386137146       0.6466774119335427
5.34E9                   0.6458660681877053       0.5866577495080226
5.37E9                   0.698651078362288        0.5213588432255445
5.4E9                    0.7448788321966415       0.4513927251899612
5.43E9                   0.7841469556501455       0.3774100437917352
5.46E9                   0.8161157479227286       0.30009460347076555
5.49E9                   0.8405105744378596       0.22015793103607195
5.52E9                   0.8571240558521969       0.1383337739224991
5.55E9                   0.8658180802869243       0.05537238693482574
5.58E9                   0.8665255702035964       -0.027965533622418312
5.61E9                   0.8592518535606022       -0.11091536144898018
5.64E9                   0.8440754377106835       -0.19271550805456916
5.67E9                   0.8211479763930275       -0.2726147554906741
5.7E9                    0.7906932644742949       -0.34987976116224595
5.73E9                   0.7530051920614724       -0.42380246990004605
5.76E9                   0.7084447194434284       -0.4937071581992605
5.79E9                   0.6574360531441258       -0.5589569035125903
5.82E9                   0.600462259215994        -0.6189593986432058
5.85E9                   0.5380605154353374       -0.6731721622772603
5.88E9                   0.47081709980142095      -0.7211072701545495
5.91E9                   0.3993620964433829       -0.7623357190537278
5.94E9                   0.3243637284960064       -0.7964914577885578
5.97E9                   0.24652222387811468      -0.8232750240281425
6.0E9                    0.16656316999766735      -0.8424566557173773
