% Model:              three_layers reality at 0.1mm.mph
% Version:            COMSOL 5.6.0.280
% Date:               Mar 2 2022, 17:10
% Table:              表格 1 - 全局计算 1
% freq (Hz)              real(emw.S11) (1)        imag(emw.S11) (1)
300000000                0.47351583202126424      -0.8723790165813654
330000000                0.3774661414686101       -0.9177490736188378
360000000                0.27717694316697516      -0.9525705680377204
390000000                0.1738034618847163       -0.9764587260014932
420000000                0.06853492542975896      -0.9891550021772206
450000000                -0.037419315824636       -0.9905300633098819
480000000                -0.14284391601010213     -0.9805852015831706
510000000                -0.24653172609628682     -0.959452170304372
540000000                -0.347297874339749       -0.9273914518365161
570000000                -0.4439935610240602      -0.8847889850035315
600000000                -0.5355193976519319      -0.8321513972101177
630000000                -0.6208381280070002      -0.7700998040102204
660000000                -0.6989865752884917      -0.6993622569582871
690000000                -0.7690866715515251      -0.6207649361556529
720000000                -0.8303554358262892      -0.5352222005019778
750000000                -0.8821137821895979      -0.44372562225114986
780000000                -0.9237940541863655      -0.347332144975731
810000000                -0.9549461985276871      -0.24715151513694195
840000000                -0.9752425092730267      -0.1443331456755222
870000000                -0.9844808923833805      -0.040052576788129554
900000000                -0.9825866201299105      0.064502297286515
930000000                -0.9696125644714981      0.16814506438543772
960000000                -0.945737918387875       0.2697045235125163
990000000                -0.9112654335455684      0.3680381397126037
1020000000               -0.8666172214487645      0.46204506319483163
1050000000               -0.8123291831367642      0.550678558424606
1080000000               -0.7490441491587764      0.63295769866106
1110000000               -0.6775038268343112      0.707978192743187
1140000000               -0.5985396653558779      0.7749222240232723
1170000000               -0.5130627612617463      0.8330671955444622
1200000000               -0.4220529365653894      0.8817932912286426
1230000000               -0.3265471297533803      0.9205897790548531
1260000000               -0.22762724569762993     0.949059999072245
1290000000               -0.1264076142431966      0.9669249962654668
1320000000               -0.024022208946852964    0.9740257754578159
1350000000               0.07838822292226269      0.9703241723983145
1380000000               0.1796889700303801       0.9559023516508218
1410000000               0.27876396129991843      0.9309609577803253
1440000000               0.37452802541312596      0.8958159613089866
1470000000               0.4659386730384931       0.8508942549589407
1500000000               0.5520072777941117       0.7967280685675715
1530000000               0.6318095413419205       0.7339482827893095
1560000000               0.7044951386083391       0.6632767320454045
1590000000               0.7692964502798603       0.5855175963341607
1620000000               0.8255363018046666       0.5015479891050378
1650000000               0.8726346404209551       0.4123078548223984
1680000000               0.9101140945601043       0.318789294801574
1710000000               0.9376043730242962       0.22202544344011843
1740000000               0.954845474421044        0.12307901929975729
1770000000               0.9616896905408368       0.02303067649146967
1800000000               0.9581024005467378       -0.07703271870903489
1830000000               0.9441616658665357       -0.1760297626120824
1860000000               0.9200566486337718       -0.2728960201298229
1890000000               0.8860848892449614       -0.3665952465182494
1920000000               0.8426484909840213       -0.45613021595496844
1950000000               0.7902492716155867       -0.5405530565191355
1980000000               0.7294829526606279       -0.6189750028663452
2010000000               0.6610324660432625       -0.6905754927170104
2040000000               0.5856604629721911       -0.754610552732772
2070000000               0.5042011078539134       -0.810420443748792
2100000000               0.41755122528289307      -0.8574365635081691
2130000000               0.3266608319332859       -0.8951876322029437
2.16E9                   0.23252301800447095      -0.9233051980005972
2.19E9                   0.13616303926897863      -0.9415284670995572
2.22E9                   0.03862635877234055      -0.9497083354864522
2.25E9                   -0.05903468891867103     -0.9478102197092588
2.28E9                   -0.15577578517939836     -0.9359148453269346
2.31E9                   -0.25057664002036767     -0.9142157264549206
2.34E9                   -0.3424565782653236      -0.8830121337933501
2.37E9                   -0.4304869791998653      -0.8426975195965419
2.4E9                    -0.5137978522350481      -0.7937456660437987
2.43E9                   -0.5915780508203454      -0.7366988276874433
2.46E9                   -0.6630722039139268      -0.6721616298574087
2.49E9                   -0.7275794643087921      -0.6008010028248694
2.52E9                   -0.7844576006833585      -0.5233486224781791
2.55E9                   -0.8331322211979355      -0.4406013148521969
2.58E9                   -0.8731082091490618      -0.35341686168243847
2.61E9                   -0.9039802457185442      -0.2627053259562498
2.64E9                   -0.9254406542903264      -0.16941750297413025
2.67E9                   -0.9372842202341662      -0.07453219843531363
2.7E9                    -0.9394104109539763      0.02095653244104577
2.73E9                   -0.9318236019858575      0.11605164309152885
2.76E9                   -0.9146318063787364      0.2097646834834031
2.79E9                   -0.8880442322249362      0.30112671482270076
2.82E9                   -0.8523678556062348      0.3891985891808724
2.85E9                   -0.8080031125372262      0.4730806187119333
2.88E9                   -0.755438772507703       0.5519216321738795
2.91E9                   -0.695246042054913       0.624927392021707
2.94E9                   -0.6280719468742396      0.6913683290773693
2.97E9                   -0.5546320477382372      0.750586543193491
3.0E9                    -0.47570255452957044     0.8020020161459143
3.03E9                   -0.3921119121636809      0.845117985305379
3.06E9                   -0.30473194032550377     0.879525432733715
3.09E9                   -0.2144686159842305      0.9049066526111873
3.12E9                   -0.12225259224109788     0.9210378702496231
3.15E9                   -0.029029549639282594    0.9277908971492513
3.18E9                   0.06424952437600116      0.9251338181303819
3.21E9                   0.1566380350576788       0.9131307172149543
3.24E9                   0.24720337144785828      0.891940457687246
3.27E9                   0.33503630790199834      0.8618145375707643
3.3E9                    0.4192601409873451       0.8230940441999396
3.33E9                   0.4990394907654079       0.7762057308957133
3.36E9                   0.5735886954224148       0.7216572363079308
3.39E9                   0.642179723286764        0.6600314648584322
3.42E9                   0.7041495161237539       0.5919801477031331
3.45E9                   0.7589066633604116       0.5182166109229781
3.48E9                   0.8059372914924374       0.4395077940259043
3.51E9                   0.8448100408507166       0.35666558911875956
3.54E9                   0.8751799992959168       0.27053760842782676
3.57E9                   0.8967914750438312       0.1819975314349641
3.6E9                    0.9094795227043939       0.09193522467687053
3.63E9                   0.9131701865768467       0.001246857653826021
3.66E9                   0.9078794866297533       -0.0891747510422914
3.69E9                   0.8937112349915641       -0.17844933518356826
3.72E9                   0.8708538248554565       -0.2657177389519557
3.75E9                   0.8395761757710368       -0.35014968353257947
3.78E9                   0.8002230512972155       -0.4309506453811487
3.81E9                   0.7532099886070782       -0.5073678108493045
3.84E9                   0.6990180882710618       -0.5786951501903354
3.87E9                   0.6381888895677446       -0.6442777476244398
3.9E9                    0.5713194846793187       -0.7035156152822238
3.93E9                   0.49905790173600445      -0.7558672737237471
3.96E9                   0.4220986359905224       -0.8008533666909833
3.99E9                   0.3411780768618847       -0.8380604801131076
4.02E9                   0.25706951430706726      -0.867145176320471
4.05E9                   0.1705774368548788       -0.887838082373563
4.08E9                   0.08253094618065973      -0.8999477406661346
4.11E9                   -0.006223728945666452    -0.903363876779493
4.14E9                   -0.09483148230594055     -0.8980597705263359
4.17E9                   -0.18243709594127788     -0.8840935107492277
4.2E9                    -0.2681942274036259      -0.8616080378415831
4.23E9                   -0.3512743391405573      -0.8308299946391643
4.26E9                   -0.43087535046182257     -0.7920674897796222
4.29E9                   -0.5062298714136256      -0.7457069154459521
4.32E9                   -0.5766129500987999      -0.6922089559674292
4.35E9                   -0.6413493119291637      -0.6321038892505914
4.38E9                   -0.6998200834527553      -0.565986239931077
4.41E9                   -0.7514689803576506      -0.4945088096608304
4.44E9                   -0.7958079113171469      -0.4183760972998138
4.47E9                   -0.832421921324418       -0.338337131178742
4.5E9                    -0.8609733807322568      -0.25517776119069807
4.53E9                   -0.8812053242531347      -0.1697124918786795
4.56E9                   -0.8929438582861808      -0.08277597057905076
4.59E9                   -0.896099582883959       0.004785729271057075
4.62E9                   -0.8906680129045892      0.0921238755584908
4.65E9                   -0.8767290259398156      0.17839574433872035
4.68E9                   -0.8544454038789487      0.2627730568172173
4.71E9                   -0.8240605595906368      0.344450095964732
4.74E9                   -0.7858955406855836      0.422651458043658
4.77E9                   -0.740345376707388       0.49663943071527544
4.8E9                    -0.6878747937297438      0.5657210010472852
4.83E9                   -0.6290132803723973      0.6292544762214997
4.86E9                   -0.5643494717935876      0.6866556545058369
4.89E9                   -0.4945248347406029      0.737403432531224
4.92E9                   -0.42022668505434213     0.7810446983757213
4.95E9                   -0.34218063514558783     0.8171983538061758
4.98E9                   -0.2611426348777182      0.8455583377422324
5.01E9                   -0.17789081749300914     0.8658955825099801
5.04E9                   -0.09321738051833038     0.8780589135794582
5.07E9                   -0.007920711279993142    0.8819749873226347
5.1E9                    0.07720209309910331      0.8776474301461086
5.13E9                   0.16136225196382697      0.8651553747412022
5.16E9                   0.24378591269654493      0.8446515681421713
5.19E9                   0.323720458255794        0.8163601506842391
5.22E9                   0.40044063288952647      0.7805740986004003
5.25E9                   0.47325454770827524      0.7376522316184106
5.28E9                   0.5415095190686122       0.6880156578146248
5.31E9                   0.6045975897701457       0.6321435811862717
5.34E9                   0.6619605414041612       0.5705685090983178
5.37E9                   0.7130942498180449       0.503871010025732
5.4E9                    0.7575523425120458       0.4326742300967876
5.43E9                   0.7949492343463679       0.3576383548041127
5.46E9                   0.8249626944940762       0.27945511547978974
5.49E9                   0.8473361071178801       0.19884233000093
5.52E9                   0.8618805358386148       0.11653837609448277
5.55E9                   0.8684766127812502       0.033296449820623186
5.58E9                   0.8670761761094887       -0.05012153166010497
5.61E9                   0.857703499243312        -0.13295147178774577
5.64E9                   0.8404559066390537       -0.21443408411672904
5.67E9                   0.8155035670201919       -0.2938222294712508
5.7E9                    0.7830883038106266       -0.37038839990053457
5.73E9                   0.7435213632944632       -0.44343207980161337
5.76E9                   0.6971802124231413       -0.5122867094262992
5.79E9                   0.6445045553269154       -0.5763260492758582
5.82E9                   0.5859918087915305       -0.6349698743633083
5.85E9                   0.5221922368193915       -0.6876890580881124
5.88E9                   0.45370383621634575      -0.7340101752064685
5.91E9                   0.3811669481682328       -0.7735197361741106
5.94E9                   0.3052585017272371       -0.8058680833257915
5.97E9                   0.22668579533718738      -0.8307728827434895
6.0E9                    0.1461797759421357       -0.8480220768092286
