% Model:              three_layers reality at 0.1mm.mph
% Version:            COMSOL 5.6.0.280
% Date:               Mar 2 2022, 17:12
% Table:              表格 1 - 全局计算 1
% freq (Hz)              real(emw.S11) (1)        imag(emw.S11) (1)
300000000                0.47166053616618697      -0.873106671461269
330000000                0.37537271060192645      -0.918330079127136
360000000                0.27485885021473283      -0.9529621904479941
390000000                0.17128053427970294      -0.9766196617901243
420000000                0.06583321173941226      -0.9890462662874896
450000000                -0.04026781448122634     -0.9901158668839568
480000000                -0.14580164355506006     -0.9798337967481601
510000000                -0.24955609148115176     -0.9583366423803468
540000000                -0.35034188416427336     -0.925890441222705
570000000                -0.44700655370604814     -0.8828873229449852
600000000                -0.5384478660139038      -0.8298406416290686
630000000                -0.623626615746437       -0.7673786636214646
660000000                -0.7015786314819888      -0.6962368940139001
690000000                -0.7714258460909826      -0.6172491406112514
720000000                -0.8323862982184886      -0.5313374305517697
750000000                -0.8837829454309098      -0.4395009088162656
780000000                -0.9250511853535847      -0.3428038602303986
810000000                -0.955744998015875       -0.24236300746230774
840000000                -0.9755416410044756      -0.13933424605172903
870000000                -0.9842448482371188      -0.03489898379847302
900000000                -0.9817865029388728      0.06974974440094167
930000000                -0.9682267753803059      0.17342121317353132
960000000                -0.9437527360220911      0.2749408232190123
990000000                -0.9086754743417074      0.37316362880081605
1020000000               -0.8634257725353991      0.46698741368495145
1050000000               -0.808548401370315       0.5553651601184597
1080000000               -0.7446951221963932      0.6373167657694636
1110000000               -0.6726164944242021      0.711939875134795
1140000000               -0.5931526014154351      0.7784197052269302
1170000000               -0.5072228195477412      0.8360377600285656
1200000000               -0.4158147649546332      0.8841793440473981
1230000000               -0.31997256022905196     0.9223398018257495
1260000000               -0.22078456908745805     0.9501294273639911
1290000000               -0.11937075046156541     0.9672770048459001
1320000000               -0.016869785029634165    0.9736319593809153
1350000000               0.0855738733349618       0.969165113608267
1380000000               0.18682287118510157      0.9539680626204619
1410000000               0.28575960821097335      0.9282511956101409
1440000000               0.3812985291580395       0.8923404076968904
1470000000               0.47239792209580467      0.846672559445603
1500000000               0.5580710989916454       0.7917897544730562
1530000000               0.6373968442167197       0.728332517185788
1560000000               0.7095290273177387       0.6570319630395277
1590000000               0.77370528788054         0.5787010627040113
1620000000               0.829254712498036        0.49422510905033434
1650000000               0.8756044363566066       0.4045515021730989
1680000000               0.9122851149913086       0.3106789723732639
1710000000               0.9389352248345549       0.21364636459246866
1740000000               0.9553041645160033       0.11452110975761497
1770000000               0.9612541420926974       0.014387509402151437
1800000000               0.9567608466686051       -0.08566504073500869
1830000000               0.9419129159643387       -0.18455376430952114
1860000000               0.9169102243594033       -0.28121403471931566
1890000000               0.8820610286714405       -0.3746106066047492
1920000000               0.837778021307237        -0.46374843975399155
1950000000               0.7845733522723862       -0.5476830154461475
1980000000               0.7230526922524746       -0.6255300571364125
2010000000               0.6539084176824581       -0.6964745826113621
2040000000               0.577912003637924        -0.7597792342930118
2070000000               0.4959057076401774       -0.8147918591126759
2100000000               0.40879361213452675      -0.8609523372842933
2130000000               0.3175320560223671       -0.8977986861374992
2.16E9                   0.2231194175398498       -0.9249724755989015
2.19E9                   0.1265851063725872       -0.942223556757935
2.22E9                   0.028977502395011002     -0.9494139733179194
2.25E9                   -0.06864948319389619     -0.9465206412283138
2.28E9                   -0.16525138470420941     -0.9336359408551964
2.31E9                   -0.2598092409745118      -0.9109649478955174
2.34E9                   -0.3513451437075686      -0.8788181163267818
2.37E9                   -0.43893452410965694     -0.8375994339529144
2.4E9                    -0.5217124741125523      -0.7877923945497152
2.43E9                   -0.5988736812582683      -0.7299481139576928
2.46E9                   -0.669669162719154       -0.6646793349826102
2.49E9                   -0.733404960606058       -0.5926605080056381
2.52E9                   -0.7894463007499983      -0.5146303124303967
2.55E9                   -0.8372269183522679      -0.43139202743237315
2.58E9                   -0.876260551812824       -0.3438092107486701
2.61E9                   -0.9061514454904511      -0.2527968600384732
2.64E9                   -0.926602103139          -0.1593097111750144
2.67E9                   -0.9374179713583687      -0.06432940031660121
2.7E9                    -0.9385095025889578      0.031148370884760926
2.73E9                   -0.9298922200852786      0.1261261304037845
2.76E9                   -0.9116852908330447      0.21961623125833568
2.79E9                   -0.8841089349254727      0.3106517513299722
2.82E9                   -0.8474808597202611      0.39829674045310937
2.85E9                   -0.8022118224323885      0.4816558427680657
2.88E9                   -0.7488003836818016      0.5598832940554045
2.91E9                   -0.68782690047746        0.632191268736774
2.94E9                   -0.6199468073518686      0.6978575346616629
2.97E9                   -0.5458832413495207      0.7562323649955557
3.0E9                    -0.46641907564725993     0.8067446544375306
3.03E9                   -0.38238843612531587     0.8489071893075772
3.06E9                   -0.2946677832896031      0.8823210272600213
3.09E9                   -0.20416664897637862     0.9066789506820195
3.12E9                   -0.11181812166790923     0.9217679683004946
3.15E9                   -0.018569176704254       0.9274708507338268
3.18E9                   0.07462905289627368      0.9237666972941398
3.21E9                   0.16683097243992118      0.9107305419489503
3.24E9                   0.2571061010734642       0.8885320149834828
3.27E9                   0.34454844619569747      0.8574330825723329
3.3E9                    0.42828560201899696      0.8177848887758895
3.33E9                   0.5074875016773686       0.7700237236604834
3.36E9                   0.5813747519141262       0.7146661388187238
3.39E9                   0.6492264744441872       0.6523032294680129
3.42E9                   0.7103875676820256       0.5835941035911318
3.45E9                   0.7642752883677226       0.5092585662013335
3.48E9                   0.8103850373686718       0.430069063685234
3.51E9                   0.8482952223733758       0.34684196085782465
3.54E9                   0.8776710683050389       0.26042826100134564
3.57E9                   0.898267259910228        0.17170392269331375
3.6E9                    0.9099293338818897       0.08155996847556983
3.63E9                   0.9125937886420641       -0.009107390046567332
3.66E9                   0.9062869417406265       -0.09940637686023995
3.69E9                   0.8911226270513546       -0.1884588053841867
3.72E9                   0.8672988773986838       -0.2754085733834523
3.75E9                   0.8350937793201393       -0.35942935478378857
3.78E9                   0.7948607174943718       -0.4397313959760052
3.81E9                   0.7470232486703172       -0.5155673860980857
3.84E9                   0.6920698520406493       -0.5862374491636849
3.87E9                   0.6305487784121784       -0.6510933990384702
3.9E9                    0.5630631468962982       -0.7095424880697941
3.93E9                   0.49026631335453835      -0.7610509328883397
3.96E9                   0.4128573843079137       -0.8051474830881342
3.99E9                   0.33157661997483406      -0.8414271984048105
4.02E9                   0.24720040846645086      -0.8695554395006205
4.05E9                   0.16053552510241823      -0.8892719054904422
4.08E9                   0.07241250587020823      -0.9003944221653362
4.11E9                   -0.01632187664116458     -0.9028221341818187
4.14E9                   -0.10481289234639082     -0.8965377881033435
4.17E9                   -0.19220663600867402     -0.8816088899301735
4.2E9                    -0.2776590159209515      -0.8581876453504091
4.23E9                   -0.3603446691598112      -0.8265097077344365
4.26E9                   -0.4394655850118094      -0.7868918416381758
4.29E9                   -0.5142592980109519      -0.7397286461584093
4.32E9                   -0.5840065843634114      -0.6854884757585601
4.35E9                   -0.6480386419451012      -0.6247086607706505
4.38E9                   -0.7057437475350288      -0.5579900862731056
4.41E9                   -0.756573371187435       -0.48599115470596294
4.44E9                   -0.80004769938502        -0.4094211453626253
4.47E9                   -0.8357604905600152      -0.32903299394984986
4.5E9                    -0.863383169611998       -0.24561554129292837
4.53E9                   -0.8826680665915387      -0.1599853339444706
4.56E9                   -0.8934507195078845      -0.07297809212245565
4.59E9                   -0.8956511896749904      0.014560013912609866
4.62E9                   -0.8892743766000883      0.10178112465935472
4.65E9                   -0.8744093624627611      0.18784433854578622
4.68E9                   -0.851227855135468       0.27192411744039346
4.71E9                   -0.8199818225947445      0.35321836177155275
4.74E9                   -0.7810004111629131      0.43095611233822795
4.77E9                   -0.7346862136744845      0.5044048717888747
4.8E9                    -0.6815109110197014      0.5728775495870876
4.83E9                   -0.622010270897646       0.6357390129569982
4.86E9                   -0.556778471026743       0.6924121806453732
4.89E9                   -0.48646173153999395     0.7423835451312577
4.92E9                   -0.4117512903143153      0.7852079732393369
4.95E9                   -0.3333758211914882      0.8205126302095757
4.98E9                   -0.25209346035842833     0.8479999022026651
5.01E9                   -0.16868365316207648     0.867449252542162
5.04E9                   -0.08393905032398036     0.8787180263101553
5.07E9                   0.0013423392307473137    0.8817413011160826
5.1E9                    0.08636459277320618      0.8765309493526902
5.13E9                   0.17034086004522866      0.8631741077610648
5.16E9                   0.25249993372594093      0.8418312272661406
5.19E9                   0.33209251637839865      0.8127337992748997
5.22E9                   0.40839730552832504      0.7761817483621746
5.25E9                   0.4807269566262795       0.7325403911892399
5.28E9                   0.548433874402036        0.6822368344772606
5.31E9                   0.6109156814791128       0.6257557397029597
5.34E9                   0.6676201733188911       0.5636344943774164
5.37E9                   0.7180496140331059       0.49645794194852794
5.4E9                    0.7617643349784924       0.4248528785915734
5.43E9                   0.7983857149016558       0.3494825010811569
5.46E9                   0.827598695145089        0.27104090234125733
5.49E9                   0.8491539911414936       0.19024760138670094
5.52E9                   0.8628701076855301       0.10784200459292229
5.55E9                   0.8686351758147602       0.02457765108485402
5.58E9                   0.8664085327448213       -0.05878389676081382
5.61E9                   0.8562218867960216       -0.1414796034762348
5.64E9                   0.8381798625169016       -0.2227519512027546
5.67E9                   0.8124597189339234       -0.3018562675827028
5.7E9                    0.7793100841621936       -0.37806818801999664
5.73E9                   0.7390486511121562       -0.45069098254016915
5.76E9                   0.6920589100097744       -0.5190624744238066
5.79E9                   0.638786108931797        -0.5825613526689185
5.82E9                   0.5797326825035027       -0.6406128110232016
5.85E9                   0.5154533468932492       -0.6926935758735038
5.88E9                   0.44654995040610856      -0.7383364530148482
5.91E9                   0.37366605287866383      -0.7771345042549741
5.94E9                   0.29748113968570583      -0.8087448822748384
5.97E9                   0.21870437794427267      -0.8328922560167474
6.0E9                    0.1380678768843648       -0.8493716911750294
