% Model:              three_layers reality at 0.1mm.mph
% Version:            COMSOL 5.6.0.280
% Date:               Feb 25 2022, 17:22
% Table:              表格 1 - 全局计算 1
% freq (Hz)              real(emw.S11) (1)        imag(emw.S11) (1)
300000000                0.5444298820507939       -0.728897648010685
330000000                0.47583945076873385      -0.7738932160692975
360000000                0.40366162626355795      -0.8125735013672797
390000000                0.3284556704179178       -0.8446443984160773
420000000                0.2508093324461491       -0.8698624810957217
450000000                0.1713332140258622       -0.8880374556814378
480000000                0.090655259650665        -0.8990341394768285
510000000                0.009415282189473295     -0.9027739607491445
540000000                -0.07174051319123845     -0.8992359731339914
570000000                -0.15216501159727758     -0.888457376612897
600000000                -0.23121566291886922     -0.8705335382505098
630000000                -0.3082599220936656      -0.8456175079403544
660000000                -0.38268061995620517     -0.81391902771935
690000000                -0.45388122506925765     -0.7757030370331763
720000000                -0.5212909531780817      -0.7312876806894242
750000000                -0.5843696786063812      -0.6810418314414783
780000000                -0.6426126016699696      -0.6253821441525855
810000000                -0.6955546266715736      -0.5647696636200417
840000000                -0.7427744056892416      -0.49970601396924413
870000000                -0.7838980062769105      -0.4307292023056488
900000000                -0.8186021638599867      -0.35840907458274357
930000000                -0.8466170835963376      -0.2833424662520834
960000000                -0.867728761106731       -0.20614809409602156
990000000                -0.8817807962420935      -0.12746124007283086
1020000000               -0.8886756803150571      -0.04792827960755011
1050000000               -0.8883755426674107      0.03179888961397421
1080000000               -0.8809023492542608      0.11106846204173222
1110000000               -0.866337552200638       0.18923432442232088
1140000000               -0.8448211958869232      0.2656615848108778
1170000000               -0.8165504915535902      0.33973197465126054
1200000000               -0.7817778786504079      0.41084907001590204
1230000000               -0.7408085969325908      0.47844328117751406
1260000000               -0.6939977988514946      0.54197656265887
1290000000               -0.6417472365926122      0.6009468003523382
1320000000               -0.5845015621834326      0.6548918370114497
1350000000               -0.5227442831066927      0.7033931018122591
1380000000               -0.4569934181836332      0.7460788158600653
1410000000               -0.38779690081969903     0.782626750517078
1440000000               -0.3157277781545653      0.8127665211470246
1470000000               -0.24137925508090163     0.8362814045927849
1500000000               -0.16535963207386895     0.8530096741159578
1530000000               -0.08828718510626032     0.8628454507481154
1560000000               -0.010785034560682406    0.8657390750130315
1590000000               0.06652395178928874      0.8616970075611733
1620000000               0.143022178903329        0.8507812714241592
1650000000               0.2181022275522354       0.8331084523364289
1680000000               0.29117160298100675      0.8088482768273091
1710000000               0.3616572951439464       0.7782217905293402
1740000000               0.4290101193890564       0.741499161489693
1770000000               0.49270881002571604      0.6989971350702406
1800000000               0.552263842328269        0.6510761684335206
1830000000               0.6072209617261177       0.598137273626128
1860000000               0.6571644020200325       0.5406185989172768
1890000000               0.7017197773081882       0.47899177847895463
1920000000               0.7405566352713706       0.4137580803332759
1950000000               0.7733906616210593       0.34544438282638973
1980000000               0.7999855283223752       0.27459900906928064
2010000000               0.8201543800019575       0.20178744890329675
2040000000               0.8337609552116056       0.12758799702901433
2070000000               0.8407203408754861       0.052587335771139804
2100000000               0.8409993600773018       -0.02262390979175114
2130000000               0.8346165949257096       -0.09745561716932216
2.16E9                   0.8216420477950308       -0.1713225855586439
2.19E9                   0.8021964457259056       -0.24364890292157082
2.22E9                   0.7764501942810924       -0.31387223556850485
2.25E9                   0.7446219884364382       -0.38144801627107316
2.28E9                   0.706977089363366        -0.44585350755247277
2.31E9                   0.663825276625138        -0.5065917186583858
2.34E9                   0.6155184852651137       -0.5631951562998386
2.37E9                   0.5624481359635388       -0.6152293906709084
2.4E9                    0.505042162934358        -0.6622964190013109
2.43E9                   0.4437617389446496       -0.7040378061307341
2.46E9                   0.37909769064217685      -0.7401375731823082
2.49E9                   0.3115665949441567       -0.7703247879477658
2.52E9                   0.2417065580298033       -0.7943757841173338
2.55E9                   0.17007271416141398      -0.8121159107906092
2.58E9                   0.09723254611968866      -0.8234207128750408
2.61E9                   0.02376120111649449      -0.8282164978583243
2.64E9                   -0.04976300033282275     -0.8264803620478509
2.67E9                   -0.12276274639925777     -0.8182398751496257
2.7E9                    -0.19466566272697483     -0.8035726543313575
2.73E9                   -0.26490819666537074     -0.7826059411702335
2.76E9                   -0.33293967672557845     -0.7555160968254381
2.79E9                   -0.3982266297316861      -0.722527797753171
2.82E9                   -0.46025726666087885     -0.6839127252590983
2.85E9                   -0.5185459535204011      -0.6399876530382258
2.88E9                   -0.5726374891705412      -0.591111952227191
2.91E9                   -0.6221110708263753      -0.5376845964297123
2.94E9                   -0.6665838869604723      -0.4801407604567387
2.97E9                   -0.7057143145514936      -0.4189480908596636
3.0E9                    -0.7392047123599141      -0.35460270679149053
3.03E9                   -0.7668038042749805      -0.28762497602339504
3.06E9                   -0.7883086448766674      -0.2185551043913103
3.09E9                   -0.8035661574915811      -0.14794857565892297
3.12E9                   -0.8124742350244898      -0.07637148010276261
3.15E9                   -0.8149823957446453      -0.004395772094227388
3.18E9                   -0.8110919894848542      0.06740550094547453
3.21E9                   -0.8008559540032053      0.1384629548787423
3.24E9                   -0.7843781258786726      0.2082155667586954
3.27E9                   -0.7618121151157209      0.27611527095612426
3.3E9                    -0.7333597572726412      0.34163141163989075
3.33E9                   -0.6992691612684996      0.4042550115747089
3.36E9                   -0.6598323751144823      0.4635028194373332
3.39E9                   -0.6153826953816574      0.5189211009202885
3.42E9                   -0.5662916495648992      0.5700891418220688
3.45E9                   -0.5129656833422639      0.6166224348902027
3.48E9                   -0.4558425872427372      0.6581755258493932
3.51E9                   -0.39538769927589856     0.6944444980283208
3.54E9                   -0.3320899216333916      0.7251690791903456
3.57E9                   -0.2664575907530015      0.7501343584392157
3.6E9                    -0.19901424044324367     0.7691721056353659
3.63E9                   -0.13029429770573167     0.7821616902015949
3.66E9                   -0.06083875014389868     0.7890306005980321
3.69E9                   0.008809177934693225     0.7897545699029646
3.72E9                   0.07810830551424904      0.7843573163569161
3.75E9                   0.1465236985819134       0.7729099104872976
3.78E9                   0.21353076760921097      0.7555297821931295
3.81E9                   0.27861923094744956      0.7323793821942943
3.84E9                   0.34129691774812587      0.7036645128785202
3.87E9                   0.40109338421608315      0.6696323444257971
3.9E9                    0.4575633168611273       0.6305691337466184
3.93E9                   0.5102896960697233       0.5867976666729644
3.96E9                   0.558886693565554        0.5386744482993854
3.99E9                   0.6030022797616035       0.4865866717286875
4.02E9                   0.6423205215133496       0.4309490011803484
4.05E9                   0.6765635586936647       0.3722002092709321
4.08E9                   0.7054932573741621       0.31079970933871903
4.11E9                   0.7289125472764955       0.2472240197825824
4.14E9                   0.74666645790284         0.18196318978060477
4.17E9                   0.7586428697622929       0.11551720581163766
4.2E9                    0.7647729935889995       0.04839239005105788
4.23E9                   0.7650315835837717       -0.018902202315081686
4.26E9                   0.7594368840845661       -0.08585837823950855
4.29E9                   0.7480503061216279       -0.1519723809605613
4.32E9                   0.7309758319138834       -0.21674842442707778
4.35E9                   0.7083591499275464       -0.2797021675365193
4.38E9                   0.6803865273255983       -0.34036410935645367
4.41E9                   0.6472834277480036       -0.39828289076654655
4.44E9                   0.6093128799729816       -0.45302849087142905
4.47E9                   0.5667735986674167       -0.5041953065772209
4.5E9                    0.5199978551238541       -0.551405099650673
4.53E9                   0.46934909565504895      -0.5943097894521249
4.56E9                   0.4152193090632336       -0.6325940633144997
4.59E9                   0.3580261515552785       -0.6659777724902242
4.62E9                   0.29820984580621385      -0.6942180809922506
4.65E9                   0.23622987903636636      -0.7171113374180175
4.68E9                   0.1725615313695432       -0.7344946454780525
4.71E9                   0.10769226954988796      -0.7462471163027643
4.74E9                   0.04211804156398191      -0.7522907933975559
4.77E9                   -0.023660494350597007    -0.7525912476447572
4.8E9                    -0.08914177727909306     -0.7471578439605127
4.83E9                   -0.15382716302270066     -0.7360436822358133
4.86E9                   -0.2172247335324462      -0.7193452137195641
4.89E9                   -0.2788530747219203      -0.6972015314654825
4.92E9                   -0.338244998497518       -0.6697933317681708
4.95E9                   -0.39495118074135205     -0.6373415439937894
4.98E9                   -0.44854368296266556     -0.6001056291549319
5.01E9                   -0.49861932229630246     -0.5583815525602633
5.04E9                   -0.5448028533759545      -0.5124994419081333
5.07E9                   -0.5867499261883039      -0.46282094862307244
5.1E9                    -0.6241497863078879      -0.40973633653640573
5.13E9                   -0.6567276879126097      -0.35366132786845106
5.16E9                   -0.6842469958982851      -0.2950337409565402
5.19E9                   -0.7065109604642583      -0.23430995685046074
5.22E9                   -0.7233641551306274      -0.17196125126137185
5.25E9                   -0.7346935749218629      -0.10847002489862737
5.28E9                   -0.7404293938251922      -0.044325960208242914
5.31E9                   -0.7405453791809928      0.01997787147317443
5.34E9                   -0.7350589569291958      0.08394892852666529
5.37E9                   -0.7240309188497238      0.14709911564031283
5.4E9                    -0.7075647637637474      0.2089486638344854
5.43E9                   -0.6858056700680213      0.2690299327975462
5.46E9                   -0.6589391057311043      0.326891090894394
5.49E9                   -0.6271890918635769      0.3820996283163827
5.52E9                   -0.5908161452368674      0.434245662691845
5.55E9                   -0.5501149325467448      0.4829450030539326
5.58E9                   -0.5054116742722172      0.5278419464075408
5.61E9                   -0.4570613381553969      0.5686117907931707
5.64E9                   -0.4054446607826159      0.6049630587607222
5.67E9                   -0.35096502997223605     0.6366394335652865
5.7E9                    -0.2940452513784784      0.6634214145822364
5.73E9                   -0.23512421291587007     0.6851276960088982
5.76E9                   -0.1746534550986974      0.7016162640854845
5.79E9                   -0.11309365866313392     0.7127851969064617
5.82E9                   -0.050911072524582934    0.7185731445920805
5.85E9                   0.011426079509565668     0.7189594712525755
5.88E9                   0.07345116456072934      0.7139640540735158
5.91E9                   0.13470263010822753      0.7036467527871815
5.94E9                   0.19472737820864783      0.6881065771342683
5.97E9                   0.2530840002832349       0.6674805857124952
6.0E9                    0.30934586162785926      0.6419425470725046
