% Model:              three_layers reality at 0.1mm.mph
% Version:            COMSOL 5.6.0.280
% Date:               Mar 2 2022, 09:28
% Table:              表格 1 - 全局计算 1
% freq (Hz)              real(emw.S11) (1)        imag(emw.S11) (1)
300000000                0.5908127412640688       -0.742523308351464
330000000                0.5228621407134995       -0.7908321134147546
360000000                0.4510961251102632       -0.8330216028691071
390000000                0.37604741928301344      -0.8687869386499408
420000000                0.2982767577533739       -0.8978700099474856
450000000                0.21836782342397837      -0.9200620340257686
480000000                0.13692223696401093      -0.9352056025534119
510000000                0.05455455291366018      -0.9431962169493604
540000000                -0.02811274806919677     -0.9439833366166941
570000000                -0.11045426454558847     -0.9375709547667278
600000000                -0.19184665947692459     -0.9240177116319814
630000000                -0.27167359951578085     -0.9034365533875381
660000000                -0.34933061968677903     -0.8759939453992767
690000000                -0.42422988129179623     -0.8419086497558471
720000000                -0.4958047897164772      -0.8014500791756136
750000000                -0.5635144383575276      -0.7549362418682851
780000000                -0.6268478450875776      -0.7027312947103126
810000000                -0.6853279484776833      -0.6452427249677046
840000000                -0.7385153325318996      -0.5829181834802363
870000000                -0.7860116497653099      -0.516241995666514
900000000                -0.8274627158570986      -0.4457313782006246
930000000                -0.8625612501221038      -0.3719323931865399
960000000                -0.8910492400461769      -0.2954156727388738
990000000                -0.9127199107287153      -0.2167719491759014
1020000000               -0.9274192832021946      -0.1366074282769871
1050000000               -0.9350473095334367      -0.055539043492755284
1080000000               -0.9355585758822488      0.025810369156708358
1110000000               -0.9289625686600671      0.10681693588081481
1140000000               -0.9153235025641628      0.18686060904399052
1170000000               -0.8947597131527394      0.265329990402997
1200000000               -0.8674426203634307      0.3416270738552085
1230000000               -0.8335952730633368      0.41517186913216914
1260000000               -0.7934904882443747      0.48540686903694685
1290000000               -0.7474486020078954      0.5518013241720702
1320000000               -0.6958348524720182      0.6138552915384745
1350000000               -0.6390564179956817      0.6711034249902681
1380000000               -0.577559136572633       0.7231184785294014
1410000000               -0.5118239349129527      0.7695144957705244
1440000000               -0.4423629977105707      0.8099496620531476
1470000000               -0.3697157095653957      0.8441287985846515
1500000000               -0.2944444034318286      0.8718054813129452
1530000000               -0.2171299507209934      0.8927837704359622
1560000000               -0.13836722902202878     0.9069195398399152
1590000000               -0.05876050386658776     0.9141213991089471
1620000000               0.021081238651888157     0.9143512040790619
1650000000               0.10054897203092904      0.9076241552382082
1680000000               0.17903828575100464      0.8940084864776003
1710000000               0.2559539827503107       0.8736247498562097
1740000000               0.3307145830969443       0.8466447050428578
1770000000               0.40275670062045316      0.8132898249673908
1800000000               0.47153926032866594      0.7738294319750395
1830000000               0.5365475263318658       0.7285784812689697
1860000000               0.5972969115709009       0.6778950108268224
1890000000               0.6533365425444568       0.6221772792827823
1920000000               0.7042525546940557       0.5618606149676004
1950000000               0.7496710958405917       0.49741400146380976
1980000000               0.789261017799144        0.4293364263626628
2010000000               0.8227362386705335       0.35815302128473575
2040000000               0.8498577608219922       0.2844110224026421
2070000000               0.8704353322735486       0.20867558150567866
2100000000               0.884328741939838        0.1315254578290257
2130000000               0.8914487416094868       0.053548621236046645
2.16E9                   0.8917575898980155       -0.02466220361000324
2.19E9                   0.8852692147473683       -0.1025140230938083
2.22E9                   0.8720489911697765       -0.17941806246511915
2.25E9                   0.8522131293565143       -0.25479422685314695
2.28E9                   0.8259276659007249       -0.32807550251106665
2.31E9                   0.7934070512251807       -0.39871225563296553
2.34E9                   0.7549123359650235       -0.46617637244710003
2.37E9                   0.7107489830887908       -0.5299651768306513
2.4E9                    0.6612643642401395       -0.5896050756494999
2.43E9                   0.6068450141910667       -0.6446549227169026
2.46E9                   0.5479136931492914       -0.6947091363446012
2.49E9                   0.4849262535045334       -0.7394006134856956
2.52E9                   0.41836826967508484      -0.7784034446839696
2.55E9                   0.34875139878941364      -0.8114353829764677
2.58E9                   0.2766094811726662       -0.8382599980415368
2.61E9                   0.20249442615176072      -0.8586884606109614
2.64E9                   0.12697194224344308      -0.8725809293978195
2.67E9                   0.05061716583417315      -0.8798475340318253
2.7E9                    -0.025989767929152665    -0.880448957124791
2.73E9                   -0.10226817569469003     -0.874396620580178
2.76E9                   -0.17764126570903632     -0.8617524809061484
2.79E9                   -0.2515405354298043      -0.8426284380872245
2.82E9                   -0.32341009538489773     -0.8171853635750118
2.85E9                   -0.3927108876074654      -0.785631754844323
2.88E9                   -0.45892476653921066     -0.7482220266475899
2.91E9                   -0.521558411354302       -0.7052544517695726
2.94E9                   -0.5801470389656364      -0.6570687672356854
2.97E9                   -0.6342578887797541      -0.604043464612245
3.0E9                    -0.6834934516653522      -0.5465927859274109
3.03E9                   -0.7274944177735168      -0.4851634492172481
3.06E9                   -0.7659423200538009      -0.4202311301295558
3.09E9                   -0.7985618529126334      -0.3522967280691689
3.12E9                   -0.8251228482199058      -0.2818824471993472
3.15E9                   -0.845441893767592       -0.20952772420467636
3.18E9                   -0.8593835824258653      -0.13578503587263438
3.21E9                   -0.8668613834140473      -0.061215620376712736
3.24E9                   -0.8678381302700425      0.013614853199224647
3.27E9                   -0.8623261233762307      0.0881406324956765
3.3E9                    -0.8503868480158263      0.1618002120926499
3.33E9                   -0.832130312011881       0.23404061222262282
3.36E9                   -0.8077140099685267      0.3043215723847359
3.39E9                   -0.7773415239935901      0.37211962723618053
3.42E9                   -0.7412607735848985      0.43693203300671235
3.45E9                   -0.6997619300641162      0.49828051399514517
3.48E9                   -0.6531750136787262      0.5557147999464179
3.51E9                   -0.601867194220337       0.6088159267665048
3.54E9                   -0.5462398186516553      0.6571992749982898
3.57E9                   -0.4867251919651375      0.7005173227267938
3.6E9                    -0.42378313978506654     0.7384620925158956
3.63E9                   -0.3578973833501641      0.7707672751455765
3.66E9                   -0.2895717588042766      0.79721001662412
3.69E9                   -0.21932631371293781     0.8176123585345171
3.72E9                   -0.1476933137818783      0.8318423255353165
3.75E9                   -0.0752131925482697      0.8398146572569841
3.78E9                   -0.002430476301607243    0.8414911851555336
3.81E9                   0.07011028470946527      0.8368808581712991
3.84E9                   0.14186854922079614      0.8260394240373424
3.87E9                   0.212311754815374        0.8090687756066564
3.9E9                    0.2809192001279122       0.7861159731325689
3.93E9                   0.3471858173595346       0.7573719537778607
3.96E9                   0.41062581453536784      0.723069939118038
3.99E9                   0.4707761672737471       0.6834835506081215
4.02E9                   0.5271999387963783       0.6389246429008866
4.05E9                   0.5794894051951183       0.5897408663050422
4.08E9                   0.62726896186241         0.5363129724526755
4.11E9                   0.670197786930725        0.47905188108951635
4.14E9                   0.7079722389944885       0.4183955300735811
4.17E9                   0.7403279693769413       0.3548055341201355
4.2E9                    0.7670417329494523       0.288763680357215
4.23E9                   0.7879328855977203       0.22076828998041087
4.26E9                   0.8028645603296728       0.15133047523918525
4.29E9                   0.8117445170612417       0.08097032043373804
4.32E9                   0.8145256635336413       0.010213014471329168
4.35E9                   0.8112062464246069       -0.06041503831142414
4.38E9                   0.8018297129701293       -0.1303901027308173
4.41E9                   0.7864842446885789       -0.19919496657246383
4.44E9                   0.7653019663078933       -0.26632273702612635
4.47E9                   0.7384578349867024       -0.3312805528044007
4.5E9                    0.7061682172269056       -0.3935931849964084
4.53E9                   0.668689163536606        -0.45280649978099413
4.56E9                   0.62631439358278         -0.5084907569740542
4.59E9                   0.5793730073122095       -0.5602437194931856
4.62E9                   0.5282269399750943       -0.6076935505687269
4.65E9                   0.47326818122193903      -0.6505014775699796
4.68E9                   0.4149157800294221       -0.6883642037899689
4.71E9                   0.3536126583208871       -0.7210160519143087
4.74E9                   0.2898222566248258       -0.7482308251141833
4.77E9                   0.22402503546743502      -0.7698233733228519
4.8E9                    0.15671485659866866      -0.7856508534537315
4.83E9                   0.08839526929172231      -0.7956136732273827
4.86E9                   0.019575728441516206     -0.7996561095748784
4.89E9                   -0.04923222665913762     -0.7977665945284689
4.92E9                   -0.11751880226517725     -0.7899776644364875
4.95E9                   -0.18477975688513607     -0.7763655720702659
4.98E9                   -0.25052015265675126     -0.7570495653575864
5.01E9                   -0.314258019920427       -0.7321908407441682
5.04E9                   -0.3755279055435029      -0.7019911830110159
5.07E9                   -0.4338842781019639      -0.6666913064945043
5.1E9                    -0.4889047662350099      -0.6265689146285138
5.13E9                   -0.5401932094223773      -0.5819364955439538
5.16E9                   -0.587382502688394       -0.5331388712372934
5.19E9                   -0.6301372176409807      -0.48055051725948517
5.22E9                   -0.6681559817661721      -0.42457267015511535
5.25E9                   -0.7011735971210594      -0.3656302415023391
5.28E9                   -0.7289628793628259      -0.30416856102974865
5.31E9                   -0.751336200072638       -0.24064997543067967
5.34E9                   -0.7681467193843764      -0.17555033330137554
5.37E9                   -0.7792893015883856      -0.10935538799975937
5.4E9                    -0.7847011116446612      -0.04255714957722314
5.43E9                   -0.7843618944829089      0.024349785795618868
5.46E9                   -0.77829394078943        0.09087190317592984
5.49E9                   -0.7665617433728702      0.15652040959756308
5.52E9                   -0.7492713478990958      0.2208148253984546
5.55E9                   -0.7265694017992295      0.28328650303520214
5.58E9                   -0.6986419059529876      0.34348204904572865
5.61E9                   -0.6657126755839251      0.4009666233939303
5.64E9                   -0.6280415197094122      0.4553270892357998
5.67E9                   -0.5859221523491039      0.5061749856677107
5.7E9                    -0.5396798533121603      0.5531492967754238
5.73E9                   -0.4896689011708255      0.5959189927735277
5.76E9                   -0.43626980489771505     0.6341853234622349
5.79E9                   -0.37988636242323565     0.6676838499395118
5.82E9                   -0.3209425735560756      0.6961862059361109
5.85E9                   -0.2598794319614885      0.7195015837470047
5.88E9                   -0.1971516179365377      0.7374779407534559
5.91E9                   -0.13322411226659822     0.7500029217354199
5.94E9                   -0.06856875212490864     0.7570044911047459
5.97E9                   -0.0036607520623100245   0.7584512693326307
6.0E9                    0.061024784390562914     0.754352569543935
