% Model:              three_layers reality at 0.1mm.mph
% Version:            COMSOL 5.6.0.280
% Date:               Feb 22 2022, 09:31
% Table:              表格 1 - 全局计算 1
% freq (Hz)              real(emw.S11) (1)        imag(emw.S11) (1)
300000000                0.4054605756122886       -0.7710468279965892
330000000                0.3220247667657608       -0.8067359553247799
360000000                0.23566693936746505      -0.8336231909001486
390000000                0.1472843579246085       -0.851465891830706
420000000                0.05779974215860442      -0.8601158449387946
450000000                -0.03185040602591034     -0.8595212019084899
480000000                -0.12072704831176431     -0.8497272401244103
510000000                -0.20789951437953286     -0.8308759746221865
540000000                -0.2924560688581913      -0.8032046493230706
570000000                -0.3735141006061728      -0.767043141336492
600000000                -0.450229869673336       -0.722810319675327
630000000                -0.5218077349602404      -0.6710094086500717
660000000                -0.587508781745433       -0.6122224150135538
690000000                -0.6466587672906748      -0.5471036875184713
720000000                -0.6986553068283405      -0.4763726861672135
750000000                -0.7429742277723541      -0.4008060470106942
780000000                -0.7791750280606281      -0.32122903552471144
810000000                -0.8069053832856405      -0.23850648867130586
840000000                -0.8259046580669587      -0.15353335059845763
870000000                -0.8360063878843255      -0.06722491162837066
900000000                -0.8371397095756041      0.019493137284900097
930000000                -0.8293297307267559      0.10569472084148952
960000000                -0.8126968404880442      0.19046335238783155
990000000                -0.787454976635257       0.2729019513917985
1020000000               -0.7539088756540795      0.35214239533591435
1050000000               -0.7124503442914345      0.42735470043817536
1080000000               -0.6635536019716446      0.4977557308889773
1110000000               -0.6077697538279171      0.5626173426895344
1140000000               -0.5457204634392224      0.6212738759925374
1170000000               -0.47809090285431577     0.6731289182414635
1200000000               -0.4056220647726503      0.7176612698649217
1230000000               -0.3291025278928345      0.7544300543400809
1260000000               -0.24935977152304264     0.7830789248533591
1290000000               -0.16725113908221642     0.8033393308514477
1320000000               -0.08365455272242316     0.8150328187555966
1350000000               5.409176028315698E-4     0.8180723523316191
1380000000               0.08444452728000336      0.8124626492489715
1410000000               0.16717327020521947      0.7982995411991548
1440000000               0.24786113224957929      0.7757683754512229
1470000000               0.32566808848706136      0.7451414857460382
1500000000               0.3997887521218079       0.7067747699201744
1530000000               0.469460588292697        0.6611034204558943
1560000000               0.5339716117829726       0.6086368623555997
1590000000               0.5926674945896456       0.5499529600281708
1620000000               0.6449580165320719       0.48569156144799
1650000000               0.6903227998610743       0.41654745361645684
1680000000               0.7283162772649843       0.34326280806851117
1710000000               0.7585718510870507       0.2666191992837813
1740000000               0.7808052106736121       0.18742928170684123
1770000000               0.79481678366563         0.10652821346650565
1800000000               0.8004933065156798       0.02476491574451109
1830000000               0.7978085086847945       -0.057006742729015764
1860000000               0.7868229144928464       -0.13793674769110775
1890000000               0.7676827759280187       -0.21718764138338342
1920000000               0.7406181589716564       -0.2939430415939315
1950000000               0.7059402149420522       -0.3674158996050582
1980000000               0.6640376765690625       -0.43685642605077074
2010000000               0.6153726253258172       -0.501559623144186
2040000000               0.5604755805716284       -0.5608723742808832
2070000000               0.4999399599205472       -0.6142000576827291
2100000000               0.434415950070564        -0.6610126685415345
2130000000               0.36460380269811954      -0.700850449833952
2.16E9                   0.29124652461603606      -0.7333290358008788
2.19E9                   0.21512186424645635      -0.758144082822391
2.22E9                   0.137033422332037        -0.7750752675966224
2.25E9                   0.05780068782284538      -0.7839893371278678
2.28E9                   -0.021752068046978046    -0.7848416047395244
2.31E9                   -0.10080767212834268     -0.777675031484183
2.34E9                   -0.17856757539948626     -0.7626161375138383
2.37E9                   -0.2542611650531793      -0.739867841013278
2.4E9                    -0.3271511153649515      -0.7097008725042314
2.43E9                   -0.39653461329265394     -0.6724466611234555
2.46E9                   -0.46174267605856223     -0.6284940988588325
2.49E9                   -0.5221410009003583      -0.5782901733213758
2.52E9                   -0.5771345971443202      -0.5223419544008348
2.55E9                   -0.626175900073039       -0.46121685518231853
2.58E9                   -0.6687742920981676      -0.3955395011770278
2.61E9                   -0.704504883432753       -0.325985365858857
2.64E9                   -0.7330153619586194      -0.25327231287308216
2.67E9                   -0.754030692981341       -0.17815122388856008
2.7E9                    -0.7673559675160334      -0.10139648921865058
2.73E9                   -0.7728778118942247      -0.023796729199881513
2.76E9                   -0.7705646904158314      0.05385414027269306
2.79E9                   -0.7604663110694965      0.13076549403839324
2.82E9                   -0.742712248872281       0.20615825597979895
2.85E9                   -0.7175098443802277      0.27927283703634703
2.88E9                   -0.6851414081385716      0.34937673931862717
2.91E9                   -0.6459607539037405      0.4157717939762218
2.94E9                   -0.6003890855045395      0.47780098781915026
2.97E9                   -0.5489102689647913      0.53485482671853
3.0E9                    -0.4920655298976284      0.5863771815900416
3.03E9                   -0.4304476246607591      0.6318705641218547
3.06E9                   -0.36469454171801374     0.6709007832772451
3.09E9                   -0.29548279624128426     0.7031009397076056
3.12E9                   -0.22352038641990912     0.7281747225162567
3.15E9                   -0.149539483359956       0.7458989813315318
3.18E9                   -0.07428892805420376     0.7561255553652532
3.21E9                   0.0014733915661972576    0.7587823495317639
3.24E9                   0.0769882126285184       0.7538736548720462
3.27E9                   0.15150255067547286      0.7414797158073605
3.3E9                    0.22427726973874035      0.7217555497652843
3.33E9                   0.2945945061842961       0.6949290257261609
3.36E9                   0.3617648825148642       0.6612982080826516
3.39E9                   0.42513444320500615      0.6212279723868521
3.42E9                   0.4840912369575865       0.575145902098482
3.45E9                   0.5380714597784897       0.523537482351616
3.48E9                   0.586565062643           0.46694062007166404
3.51E9                   0.6291207196553696       0.40593954042845415
3.54E9                   0.6653500516009523       0.3411581370403488
3.57E9                   0.6949310095324898       0.27325288456483127
3.6E9                    0.7176103459785126       0.20290545185472328
3.63E9                   0.7332051364377293       0.1308151750915381
3.66E9                   0.7416033561227817       0.0576915578964068
3.69E9                   0.7427635592646645       -0.015753042419994184
3.72E9                   0.7367137443752789       -0.08881040323984657
3.75E9                   0.7235495167657646       -0.1607829875221987
3.78E9                   0.7034316814968755       -0.23098997614886183
3.81E9                   0.6765834179144037       -0.29877273811808797
3.84E9                   0.6432871973954335       -0.36349974388134654
3.87E9                   0.6038815975640731       -0.4245709886497224
3.9E9                    0.5587581258496938       -0.48142205600320925
3.93E9                   0.5083580886377519       -0.5335279957090717
3.96E9                   0.45316944284265087      -0.5804071891735761
3.99E9                   0.39372347429963866      -0.6216253195509094
4.02E9                   0.3305910952688109       -0.6567994618477041
4.05E9                   0.26437856247186176      -0.6856021914292669
4.08E9                   0.19572248527732639      -0.7077655141762365
4.11E9                   0.12528409814654734      -0.7230843754513824
4.14E9                   0.053742879560048        -0.7314195164850494
4.17E9                   -0.018210317359485553    -0.7326995050852506
4.2E9                    -0.08988041609899611     -0.7269218505073447
4.23E9                   -0.16057534584887512     -0.7141531951549484
4.26E9                   -0.22961318050538893     -0.6945286385853976
4.29E9                   -0.2963290721857632      -0.6682502813799607
4.32E9                   -0.360081914672091       -0.6355850775838452
4.35E9                   -0.42026070669939825     -0.5968620635850762
4.38E9                   -0.47629059711418986     -0.5524690024340242
4.41E9                   -0.5276385859312714      -0.5028484592600869
4.44E9                   -0.573818835939022       -0.448493314154518
4.47E9                   -0.61439752898463        -0.38994172543294114
4.5E9                    -0.6489971875424555      -0.3277715749311873
4.53E9                   -0.677300379624488       -0.2625944519547069
4.56E9                   -0.699052734264673       -0.19504925773325957
4.59E9                   -0.7140652143547177      -0.1257955330217432
4.62E9                   -0.7222156210722318      -0.05550662378076359
4.65E9                   -0.7234493356399161      0.015137199741733099
4.68E9                   -0.7177793336687984      0.0854555687198742
4.71E9                   -0.7052855269982512      0.15477471048958336
4.74E9                   -0.6861134908768434      0.22243396825284703
4.77E9                   -0.6604726185545142      0.287792127943756
4.8E9                    -0.6286337170360725      0.35023354383796756
4.83E9                   -0.5909260300883673      0.4091740413720635
4.86E9                   -0.5477336617590701      0.4640665448028603
4.89E9                   -0.49949138443573404     0.5144063408841575
4.92E9                   -0.44667984853955806     0.5597358631543717
4.95E9                   -0.38982025728885134     0.5996488751832455
4.98E9                   -0.32946861679583234     0.6337939491412165
5.01E9                   -0.2662097073858125      0.6618771753482813
5.04E9                   -0.20065093757713479     0.6836640919209875
5.07E9                   -0.13341623214031825     0.6989808811218969
5.1E9                    -0.0651400688393208      0.7077149277188215
5.13E9                   0.003538280016058515     0.7098148603130919
5.16E9                   0.0719803106263635       0.7052901872337434
5.19E9                   0.13955371498563204      0.6942105921623403
5.22E9                   0.20563774383951242      0.6767048852775169
5.25E9                   0.2696285402104854       0.6529595429478232
5.28E9                   0.33094440686563065      0.6232167452121189
5.31E9                   0.3890308990888082       0.5877718515922016
5.34E9                   0.44336559991149294      0.5469703293238432
5.37E9                   0.4934624573046831       0.5012042276778498
5.4E9                    0.5388756306924061       0.45090833874890707
5.43E9                   0.5792028741907167       0.39655617938136856
5.46E9                   0.6140885412948095       0.338655877797337
5.49E9                   0.6432263106700877       0.2777459774600884
5.52E9                   0.666361705784664        0.21439110769664935
5.55E9                   0.6832944268669401       0.1491774344199631
5.58E9                   0.6938804504662436       0.08270780162582479
5.61E9                   0.6980337956723759       0.015596502590783184
5.64E9                   0.6957278182851653       -0.051536327395945616
5.67E9                   0.6869958843295365       -0.11807063668466007
5.7E9                    0.6719312997191917       -0.18339257028437717
5.73E9                   0.6506864354444318       -0.24690058576560203
5.76E9                   0.6234710756129651       -0.30801137391517475
5.79E9                   0.5905501000958514       -0.36616542603653657
5.82E9                   0.5522406584350644       -0.4208321727752603
5.85E9                   0.5089089758608399       -0.471514709536933
5.88E9                   0.46096686666119774      -0.517754178480152
5.91E9                   0.4088679522543595       -0.5591338749649698
5.94E9                   0.35310353022649044      -0.5952830980829616
5.97E9                   0.29419803427778         -0.6258807017131204
6.0E9                    0.23270405589603202      -0.6506582539777162
