% Model:              three_layers reality at 0.1mm.mph
% Version:            COMSOL 5.6.0.280
% Date:               Feb 23 2022, 20:04
% Table:              表格 1 - 全局计算 1
% freq (Hz)              real(emw.S11) (1)        imag(emw.S11) (1)
300000000                0.5137204332352806       -0.8040468437997883
330000000                0.43175356646377827      -0.8488109838641393
360000000                0.34609807347046556      -0.8853282308971157
390000000                0.25755656780661057      -0.913309905278519
420000000                0.16695678495317579      -0.9325425934584664
450000000                0.07514394559065246      -0.9428911705920261
480000000                -0.017027159391907177    -0.9443008197740733
510000000                -0.10870024576486054     -0.9367980772759991
540000000                -0.19902566603727473     -0.920490934359047
570000000                -0.2871684911973625      -0.895568027386819
600000000                -0.3723164486386093      -0.8622969512689691
630000000                -0.45368762773672666     -0.8210217351146167
660000000                -0.530537869625337       -0.7721595233843117
690000000                -0.6021677635127006      -0.7161965111416939
720000000                -0.6679291786113457      -0.6536831865916746
750000000                -0.7272312657907931      -0.585228939779211
780000000                -0.7795458710863881      -0.5114961003172833
810000000                -0.8244123086890829      -0.4331934723289795
840000000                -0.8614414498141617      -0.3510694378275793
870000000                -0.8903190905798261      -0.26590470349702544
900000000                -0.9108085704225186      -0.17850476823761072
930000000                -0.9227526205789927      -0.08969219066886197
960000000                -0.9260744304917754      -2.9873672466183224E-4
990000000                -0.9207779282518139      0.08884251234722103
1020000000               -0.9069472793607316      0.17690501183813445
1050000000               -0.8847456162040775      0.26307648724027405
1080000000               -0.8544130183618069      0.3465664736779396
1110000000               -0.816263771334552       0.426613588418002
1140000000               -0.770682938318532       0.5024924673035643
1170000000               -0.7181222861607619      0.5735203005759822
1200000000               -0.6590956125436938      0.6390629086175189
1230000000               -0.5941735269668534      0.6985403034682574
1260000000               -0.5239777424740261      0.751431688477211
1290000000               -0.44917493942142334     0.7972798543639946
1320000000               -0.3704702654255674      0.8356949371641229
1350000000               -0.2886005385651686      0.8663575100168339
1380000000               -0.20432722226175448     0.8890209881751148
1410000000               -0.11842924153841797     0.9035133334955276
1440000000               -0.031695710540802224    0.9097380517924208
1470000000               0.05508135918328066      0.9076744834145256
1500000000               0.1411143014040462       0.8973773941952454
1530000000               0.22562692225261288      0.8789758804101302
1560000000               0.30786144738659726      0.8526716076997956
1590000000               0.38708522802101375      0.8187364097751685
1620000000               0.4625971480185614       0.7775092782443228
1650000000               0.53373367802375         0.7293927800491405
1680000000               0.599874527227957        0.6748489435575489
1710000000               0.6604478477638374       0.6143946587084573
1740000000               0.7149349522473788       0.5485966400635318
1770000000               0.7628745099428056       0.4780660051221771
1800000000               0.8038661932229968       0.4034525226700012
1830000000               0.8375737518813555       0.3254385882210045
1860000000               0.8637274994423791       0.24473298512302272
1890000000               0.8821262026980272       0.16206449055418792
1920000000               0.8926383731624207       0.07817538569971008
1950000000               0.8952029675828158       -0.006185072287395776
1980000000               0.8898295136425891       -0.0902671622742452
2010000000               0.8765976867433232       -0.17332714734821292
2040000000               0.8556563734616675       -0.25463362278404994
2070000000               0.8272222649419242       -0.33347374564475163
2100000000               0.7915780248480839       -0.4091593560607086
2130000000               0.7490700627231274       -0.4810330397923009
2.16E9                   0.7001058996895054       -0.5484742293374812
2.19E9                   0.6451510181511524       -0.6109054794620064
2.22E9                   0.5847249226302988       -0.6677990380521915
2.25E9                   0.5193959201147326       -0.7186836811621156
2.28E9                   0.4497739627042636       -0.7631513884004304
2.31E9                   0.37650104089617464      -0.8008627810605244
2.34E9                   0.30023941249054453      -0.831549605341928
2.37E9                   0.22165944619343245      -0.8550126265500941
2.4E9                    0.141430240683939        -0.8711148530707865
2.43E9                   0.06021588314372011      -0.8797727005423965
2.46E9                   -0.021322522017447734    -0.8809495143696241
2.49E9                   -0.10252239500710765     -0.874654720616753
2.52E9                   -0.18271736535554642     -0.8609483371631893
2.55E9                   -0.2612397462772586      -0.8399476280376521
2.58E9                   -0.3374274130000699      -0.8118323883512997
2.61E9                   -0.4106329408441086      -0.77684703762197
2.64E9                   -0.4802328828891198      -0.7352995221108177
2.67E9                   -0.5456359690976077      -0.6875579422176278
2.7E9                    -0.606289869952035       -0.634045895550877
2.73E9                   -0.6616866428659492      -0.5752372289785791
2.76E9                   -0.7113671258305703      -0.5116505705816208
2.79E9                   -0.7549245200514014      -0.44384379375182736
2.82E9                   -0.792007328777188       -0.37240845329714495
2.85E9                   -0.8223217492284693      -0.2979641904479466
2.88E9                   -0.8456335646508762      -0.2211530967753893
2.91E9                   -0.8617695535789663      -0.1426340347259841
2.94E9                   -0.8706184178894768      -0.06307692418219561
2.97E9                   -0.8721312250797472      0.016842984555094555
3.0E9                    -0.866321359598651       0.09645082211530764
3.03E9                   -0.8532639806899551      0.17507776008387968
3.06E9                   -0.8330949887151565      0.25206657984452957
3.09E9                   -0.8060095073439335      0.32677710836280377
3.12E9                   -0.7722598948761232      0.39859147875097184
3.15E9                   -0.7321533035222656      0.4669191753150959
3.18E9                   -0.6860488102608393      0.5312018260918271
3.21E9                   -0.6343541460481612      0.5909177106144073
3.24E9                   -0.5775220512312164      0.6455859558699413
3.27E9                   -0.5160462836459042      0.6947703980332256
3.3E9                    -0.4504573025124164      0.7380830902831915
3.33E9                   -0.3813176466138315      0.7751874368112119
3.36E9                   -0.30921702130342404     0.8058009289673467
3.39E9                   -0.23476710705882153     0.8296974518246965
3.42E9                   -0.15859610547865854     0.8467091186091805
3.45E9                   -0.0813430478142589      0.8567275790433376
3.48E9                   -0.0036519082927462423   0.8597047382431842
3.51E9                   0.07383441138687595      0.8556528198496942
3.54E9                   0.15048013087480572      0.844643714499044
3.57E9                   0.225662549237447        0.826807575906257
3.6E9                    0.29877776706041675      0.8023306617394321
3.63E9                   0.3692460206157934       0.7714524610265194
3.66E9                   0.43651648760820194      0.734462196164492
3.69E9                   0.5000714520627352       0.6916948269013036
3.72E9                   0.5594297541245258       0.6435267107517888
3.75E9                   0.6141494928286098       0.5903710893665496
3.78E9                   0.6638299938529472       0.5326735775410868
3.81E9                   0.7081131045652587       0.4709078312713253
3.84E9                   0.7466839388188327       0.40557155649129417
3.87E9                   0.7792712594936457       0.33718297630932736
3.9E9                    0.8056477375618997       0.2662777922231612
3.93E9                   0.8256303347383614       0.19340656047923127
3.96E9                   0.8390810012762757       0.11913228774002423
3.99E9                   0.845907764069083        0.04402797092330239
4.02E9                   0.8460661328286353       -0.031326201989353916
4.05E9                   0.8395606200860375       -0.10634620352098297
4.08E9                   0.8264460946088502       -0.18044815817886906
4.11E9                   0.806828686102806        -0.2530529205796743
4.14E9                   0.7808660234689591       -0.3235910718368866
4.17E9                   0.7487666922340396       -0.3915081027891152
4.2E9                    0.7107889061642038       -0.45626954770059713
4.23E9                   0.6672384756061416       -0.5173658751918712
4.26E9                   0.6184662043475595       -0.5743170132475333
4.29E9                   0.5648648540369628       -0.6266764591380436
4.32E9                   0.5068657887852522       -0.6740349823452889
4.35E9                   0.4449353682283729       -0.7160239577753978
4.38E9                   0.37957111341216837      -0.7523183660023627
4.41E9                   0.3112976403899653       -0.7826394754329176
4.44E9                   0.2406623478342123       -0.8067571909246132
4.47E9                   0.16823085536717333      -0.8244920268299997
4.5E9                    0.09458221193806829      -0.8357166473638012
4.53E9                   0.02030392050573635      -0.8403569160753301
4.56E9                   -0.05401314995950451     -0.8383924080365136
4.59E9                   -0.1277798762978218      -0.8298563605490994
4.62E9                   -0.20041392051191656     -0.8148350674559284
4.65E9                   -0.2713446068309714      -0.7934667538608285
4.68E9                   -0.34001756820955703     -0.7659399951355277
4.71E9                   -0.40589912841066644     -0.7324917576011152
4.74E9                   -0.46848042357580444     -0.693405130965594
4.77E9                   -0.5272812952230953      -0.6490067936465773
4.8E9                    -0.581853991422008       -0.5996642106289086
4.83E9                   -0.6317866900282431      -0.5457825260682397
4.86E9                   -0.6767068141957783      -0.48780109643963343
4.89E9                   -0.7162840624342786      -0.4261896234941226
4.92E9                   -0.7502330411671263      -0.3614438868888808
4.95E9                   -0.7783153794418641      -0.29408113188014856
4.98E9                   -0.8003412265014593      -0.224635222694898
5.01E9                   -0.8161700795658853      -0.1536517131605918
5.04E9                   -0.8257109526441777      -0.08168300257822668
5.07E9                   -0.828921965428175       -0.009283729859618985
5.1E9                    -0.825809488557338       0.06299348941923204
5.13E9                   -0.8164270094429545      0.13460195397068317
5.16E9                   -0.8008738658299763      0.20500445104192863
5.19E9                   -0.7792939292751918      0.27367663336798703
5.22E9                   -0.7518742259794676      0.34011033200988733
5.25E9                   -0.7188433964525291      0.4038168882452808
5.28E9                   -0.6804698609812827      0.46433049124951725
5.31E9                   -0.6370595962316533      0.521211410742278
5.34E9                   -0.5889535232573707      0.5740489653616658
5.37E9                   -0.5365246112610852      0.6224640938416978
5.4E9                    -0.48017486337532445     0.666111483143728
5.43E9                   -0.42033234385169865     0.7046813123568375
5.46E9                   -0.35744833880007604     0.7379007472898893
5.49E9                   -0.2919946476680922      0.7655353418396937
5.52E9                   -0.22446091661665168     0.7873904682372177
5.55E9                   -0.15535187261318875     0.8033128275769098
5.58E9                   -0.08518430735737077     0.8131920080970926
5.61E9                   -0.014483690221186585    0.8169619815992095
5.64E9                   0.05621964834979405      0.814602372373245
5.67E9                   0.12639473694796735      0.8061393097195166
5.7E9                    0.19551446835024608      0.791645695382649
5.73E9                   0.2630601946987485       0.7712407864684914
5.76E9                   0.3285261874985674       0.74508910214832
5.79E9                   0.39142377572078113      0.7133987746987213
5.82E9                   0.4512850759567618       0.6764195342473382
5.85E9                   0.5076663491477055       0.6344405080962208
5.88E9                   0.5601511022210861       0.5877879356291148
5.91E9                   0.6083530645792611       0.5368227928513941
5.94E9                   0.651919115103825        0.4819382394154739
5.97E9                   0.6905321522184033       0.4235567748148606
6.0E9                    0.7239138269844884       0.36212701541151365
