% Model:              three_layers reality at 0.1mm.mph
% Version:            COMSOL 5.6.0.280
% Date:               Mar 7 2022, 16:29
% Table:              表格 1 - 全局计算 1
% freq (Hz)              real(emw.S11) (1)        imag(emw.S11) (1)
300000000                0.5149734573693507       -0.8046995116167808
330000000                0.4329439589762874       -0.8496665437633291
360000000                0.34719267847361146      -0.8863739874978007
390000000                0.25852597888766127      -0.9145288986187288
420000000                0.16777546163852275      -0.9339143894635674
450000000                0.07579028810797635      -0.9443925478963284
480000000                -0.01657076921064107     -0.9459063841574786
510000000                -0.10844743468266992     -0.9384808242732477
540000000                -0.19898609067800985     -0.9222227726995968
570000000                -0.28734789068280325     -0.8973202709480719
600000000                -0.37271672978969755     -0.8640407836938566
630000000                -0.45430698304998923     -0.8227286486280403
660000000                -0.5313709278509676      -0.773801732032619
690000000                -0.6032057726529433      -0.7177473372601068
720000000                -0.6691602193422366      -0.6551174191865868
750000000                -0.7286404942783667      -0.5865231625570477
780000000                -0.7811157881728358      -0.5126289876074005
810000000                -0.8261230531220477      -0.43414605069171697
840000000                -0.8632711120157801      -0.3518253116802672
870000000                -0.8922440436059708      -0.26645024307534126
900000000                -0.9128038141572272      -0.17882925885825568
930000000                -0.9247921353511415      -0.08978794232397627
960000000                -0.9281315359007358      -1.6115365796347996E-4
990000000                -0.9228256430941304      0.08921490198771018
1020000000               -0.9089586785317416      0.17751056592930947
1050000000               -0.8866941805008905      0.26391049808892136
1080000000               -0.8562729732404789      0.3476212537945428
1110000000               -0.818010410909405       0.4278785916375813
1140000000               -0.7722929310492367      0.5039544433802486
1170000000               -0.7195739590195802      0.5751634805821478
1200000000               -0.6603692106903996      0.6408692184875739
1230000000               -0.5952514463944354      0.7004896025255212
1260000000               -0.5248447333530485      0.7535020297325057
1290000000               -0.44981827833279886     0.7994477630966971
1320000000               -0.3708798950621491      0.8379357041536466
1350000000               -0.28876917384030376     0.8686454957829896
1380000000               -0.20425042219518588     0.8913299344812528
1410000000               -0.11810544676071366     0.9058166783593822
1440000000               -0.031126246522900126    0.9120092443725657
1470000000               0.0558923126402501       0.909887295154586
1500000000               0.14215977342001676      0.8995062227591245
1530000000               0.22689724570055533      0.8809960431192456
1560000000               0.30934438375647333      0.854559621351876
1590000000               0.3887661204310215       0.8204702539453228
1620000000               0.46445910034142135      0.7790686394251786
1650000000               0.5357577578539416       0.7307592742007059
1680000000               0.6020399901476499       0.676006314987535
1710000000               0.6627323804468489       0.615328953326449
1740000000               0.7173149315210804       0.54929635152093
1770000000               0.7653252751542731       0.4785221924167957
1800000000               0.8063623290321932       0.4036588981795339
1830000000               0.8400893786785869       0.3253915752500009
1860000000               0.8662365685914626       0.24443174424128153
1890000000               0.8846027937524437       0.1615109142106695
1920000000               0.8950569903496977       0.07737406046183821
1950000000               0.8975388326842897       -0.007226936357724198
1980000000               0.8920588523680508       -0.09153983587779951
2010000000               0.8786980054198303       -0.17481852082067836
2040000000               0.857606722323321        -0.25632938092815316
2070000000               0.8290034834131017       -0.3353575804202041
2100000000               0.7931729626309842       -0.41121321950208123
2130000000               0.7504637679351476       -0.4832374398938911
2.16E9                   0.7012857610921831       -0.5508085714201041
2.19E9                   0.646106842021477        -0.6133484533728976
2.22E9                   0.5854489155057964       -0.6703290448999503
2.25E9                   0.5198825377941816       -0.7212792772779995
2.28E9                   0.4500195810936745       -0.7657916914552912
2.31E9                   0.37650342461282826      -0.8035277317443055
2.34E9                   0.29999703222672347      -0.834219927564028
2.37E9                   0.22117083632405363      -0.8576693416926026
2.4E9                    0.14069372744508649      -0.8737383579244098
2.43E9                   0.05922999276455219      -0.8823417014137842
2.46E9                   -0.02255795076448397     -0.8834403249961942
2.49E9                   -0.10400476909125961     -0.87704133767589
2.52E9                   -0.18444013080495358     -0.8632033198274803
2.55E9                   -0.2631918098436474      -0.8420434323794952
2.58E9                   -0.33959323820145076     -0.8137427045777147
2.61E9                   -0.4129931107362301      -0.7785478271831711
2.64E9                   -0.4827648626030978      -0.7367696673169033
2.67E9                   -0.548314870918476       -0.6887795658822999
2.7E9                    -0.6090891228556125      -0.6350044578357066
2.73E9                   -0.6645785419029324      -0.5759214986620268
2.76E9                   -0.7143232746830952      -0.5120525374605912
2.79E9                   -0.7579161924918466      -0.4439585597888436
2.82E9                   -0.7950057738617331      -0.37223411976883014
2.85E9                   -0.8252984594278057      -0.29750174637927046
2.88E9                   -0.8485605198396577      -0.22040630803649314
2.91E9                   -0.8646194486428427      -0.14160933092524672
2.94E9                   -0.873364878004937       -0.061783280106284116
2.97E9                   -0.8747490102862024      0.018394175644248636
3.0E9                    -0.8687865588280048      0.09824588511548965
3.03E9                   -0.8555541947108423      0.17710088564717885
3.06E9                   -0.8351895011462229      0.2542999832111284
3.09E9                   -0.8078894429124244      0.32920119921708746
3.12E9                   -0.7739083642408723      0.40118504162518165
3.15E9                   -0.7335555341581306      0.469659560019652
3.18E9                   -0.6871922630569243      0.5340651476594185
3.21E9                   -0.6352286173075137      0.5938790585311546
3.24E9                   -0.5781197596356257      0.6486196126448796
3.27E9                   -0.5163619415012454      0.6978500674103718
3.3E9                    -0.4504881700546382      0.7411821357455879
3.33E9                   -0.381063567453606       0.7782791311364459
3.36E9                   -0.3086804360540456      0.8088587155740232
3.39E9                   -0.23395304089684352     0.8326952182023079
3.42E9                   -0.1575121239018431      0.8496214810535321
3.45E9                   -0.07999917335176346     0.8595301759671632
3.48E9                   -0.0020604898706523046   0.8623745262355382
3.51E9                   0.07565888457659097      0.8581683623646618
3.54E9                   0.15252127719779518      0.8469854480015425
3.57E9                   0.2279024054865552       0.8289580332700979
3.6E9                    0.3011971560880966       0.8042746291641834
3.63E9                   0.3718249590789974       0.7731770443670476
3.66E9                   0.4392346057746663       0.7359567768517107
3.69E9                   0.5029083871196723       0.6929508974832428
3.72E9                   0.5623654716930659       0.6445375952792297
3.75E9                   0.617164490897363        0.5911315731482676
3.78E9                   0.6669053516698018       0.5331794914761542
3.81E9                   0.7112303575123005       0.4711556539306059
3.84E9                   0.7498247882548796       0.4055581069146061
3.87E9                   0.7824171600891603       0.3369052663628086
3.9E9                    0.8087794358133493       0.26573308595686673
3.93E9                   0.8287274510759666       0.1925926511697056
3.96E9                   0.8421217464251957       0.11804795930838884
3.99E9                   0.848868856039005        0.04267357212132135
4.02E9                   0.8489229406513531       -0.03294816330706126
4.05E9                   0.8422875163387222       -0.10823053662076892
4.08E9                   0.8290169638446901       -0.18258660420410588
4.11E9                   0.8092175188125736       -0.2554339402192631
4.14E9                   0.7830475262940123       -0.3261998064577566
4.17E9                   0.7507168601430032       -0.39432648432787326
4.2E9                    0.7124855236507426       -0.459276519863117
4.23E9                   0.6686615345407834       -0.5205376874752575
4.26E9                   0.6195982412407499       -0.5776275563387999
4.29E9                   0.56569121736752         -0.6300976208000146
4.32E9                   0.5073748485418523       -0.6775370128814002
4.35E9                   0.4451186770744448       -0.7195758412019884
4.38E9                   0.3794235246174523       -0.7558881963251141
4.41E9                   0.31081738388725705      -0.7861948376552028
4.44E9                   0.2398510636272608       -0.8102655448648108
4.47E9                   0.16709358309797206      -0.8279210898992432
4.5E9                    0.09312733636476178      -0.8390347709731536
4.53E9                   0.01854307413645504      -0.8435334497694861
4.56E9                   -0.056065224113247686    -0.8413980457147089
4.59E9                   -0.13010549746023675     -0.8326634642102523
4.62E9                   -0.20299267306883886     -0.8174179656149122
4.65E9                   -0.27415356805235247     -0.7958020139858015
4.68E9                   -0.3430315565664601      -0.7680066717118528
4.71E9                   -0.4090909708232044      -0.7342716189953639
4.74E9                   -0.4718212435799533      -0.6948828681662353
4.77E9                   -0.5307408276443052      -0.6501702114649665
4.8E9                    -0.5854009312261059      -0.600504397014746
4.83E9                   -0.6353890820962977      -0.5462939888456698
4.86E9                   -0.6803324860466541      -0.48798185082431034
4.89E9                   -0.7199010938798474      -0.4260412102772888
4.92E9                   -0.7538102548549189      -0.36097130186521414
4.95E9                   -0.7818228264722583      -0.2932926527813307
4.98E9                   -0.8037506341974474      -0.22354213039534657
5.01E9                   -0.8194552264337581      -0.1522679178355308
5.04E9                   -0.8288479403160889      -0.08002460033930756
5.07E9                   -0.8318893694074163      -0.007368527394659802
5.1E9                    -0.8285883870967906      0.06514643950501718
5.13E9                   -0.8190009085128868      0.1369727689082818
5.16E9                   -0.8032285517975455      0.20757276060185992
5.19E9                   -0.7814172842283196      0.2764218443947097
5.22E9                   -0.7537560320759411      0.3430118260769072
5.25E9                   -0.7204751396638401      0.40685416999282875
5.28E9                   -0.6818445299581474      0.46748329840380826
5.31E9                   -0.6381714675753776      0.5244597817896406
5.34E9                   -0.5897979336664962      0.5773732469581753
5.37E9                   -0.5370977355156766      0.6258448668999079
5.4E9                    -0.48047353520738467     0.6695293980994338
5.43E9                   -0.42035396453171026     0.7081168469666328
5.46E9                   -0.3571909106940269      0.7413339255304408
5.49E9                   -0.29145694865723115     0.7689454704143825
5.52E9                   -0.22364280275026083     0.7907559515580583
5.55E9                   -0.1542546691511241      0.8066111114721848
5.58E9                   -0.08381122948722641     0.8163996801615747
5.61E9                   -0.012840228559757883    0.8200550276612667
5.64E9                   0.058125434814794374     0.8175565606255271
5.67E9                   0.12855205814708928      0.808930652890727
5.7E9                    0.19790978094890388      0.7942509321894513
5.73E9                   0.2656773024508336       0.7736378294918183
5.76E9                   0.3313464256775623       0.7472574191655789
5.79E9                   0.39442623564536294      0.7153196978414101
5.82E9                   0.4544468371001486       0.6780765155827783
5.85E9                   0.5109627091639194       0.6358193514109103
5.88E9                   0.5635558184904825       0.5888770285337535
5.91E9                   0.6118386343293551       0.537613345150968
5.94E9                   0.6554571203332998       0.48242451228171346
5.97E9                   0.694093682983802        0.4237362693631084
6.0E9                    0.7274699782256552       0.36200058314569067
