% Model:              three_layers reality at 0.1mm.mph
% Version:            COMSOL 5.6.0.280
% Date:               Feb 22 2022, 15:47
% Table:              表格 1 - 全局计算 1
% freq (Hz)              real(emw.S11) (1)        imag(emw.S11) (1)
300000000                0.4057249337561654       -0.7710317389977362
330000000                0.3223117015533147       -0.8067426847194539
360000000                0.23597443629742845      -0.8336566672718896
390000000                0.14760958044997016      -0.8515308072832207
420000000                0.05813906633513177      -0.8602165347886708
450000000                -0.03150134068208637     -0.8596615295499913
480000000                -0.12037327246592203     -0.849910489239139
510000000                -0.20754664806344866     -0.8311047507808129
540000000                -0.29211022743060255     -0.803480792872091
570000000                -0.37318178911227173     -0.767367653266822
600000000                -0.44991786724026456     -0.7231833020017023
630000000                -0.5215229713383568      -0.6714300205010044
660000000                -0.5872582079403134      -0.6126888455021486
690000000                -0.6464492226991565      -0.5476131459962738
720000000                -0.6984933850608366      -0.47692141034808133
750000000                -0.7428661435991462      -0.40138932899113056
780000000                -0.7791264877725328      -0.321841265561595
810000000                -0.8069214608524764      -0.2391412160910684
840000000                -0.8259896792579661      -0.15418336110019268
870000000                -0.836163824482056       -0.06788231984625644
900000000                -0.8373720856314603      0.018836781352600966
930000000                -0.8296385426034979      0.10504831313523277
960000000                -0.8130824922195409      0.189836105694109
990000000                -0.7879167318793998      0.27230325780986564
1020000000               -0.7544448272555819      0.35158168251517724
1050000000               -0.713057402163416       0.42684128387263387
1080000000               -0.664227499736032       0.4972986645835937
1110000000               -0.608505074313187       0.5622252706281685
1140000000               -0.5465106828826133      0.6209548867368245
1170000000               -0.47892845328119216     0.6728904050565574
1200000000               -0.4064984138126966      0.7175097985763954
1230000000               -0.3300082749837803      0.7543712410685587
1260000000               -0.2502847591662928      0.7831173256319423
1290000000               -0.16818457764486575     0.8034783448988954
1320000000               -0.08458515702648679     0.8152746070196415
1350000000               -3.7521815672096896E-4   0.8184177726634414
1380000000               0.08355468922617569      0.8129112093197135
1410000000               0.1663215940795144       0.798849370015833
1440000000               0.24705935416205432      0.7764162140529937
1470000000               0.3249276522804774       0.7458826973819281
1500000000               0.3991206465453829       0.7076033697215197
1530000000               0.4688751877867196       0.6620121243636632
1560000000               0.533478523160035        0.609617154768096
1590000000               0.5922754118140239       0.5509951793587189
1620000000               0.6446745855964757       0.4867850025933164
1650000000               0.6901544957366312       0.41768048603786323
1680000000               0.7282682946517458       0.34442300801304365
1710000000               0.7586480105494563       0.2677934944677181
1740000000               0.7810078815000833       0.18860410663610566
1770000000               0.7951468246054315       0.10768967337511691
1800000000               0.8009500252566366       0.025898957102447936
1830000000               0.7983896407203286       -0.05591415735243124
1860000000               0.7875246217343688       -0.13689946262258776
1890000000               0.7684996651578662       -0.21621913095402126
1920000000               0.7415433199560862       -0.29305623554122795
1950000000               0.7069652777395267       -0.3666230129725987
1980000000               0.6651528873203024       -0.4361687955625163
2010000000               0.6165669395708151       -0.5009875519060126
2040000000               0.5617367729451722       -0.5604249864118639
2070000000               0.501254748978717        -0.6138851641397407
2100000000               0.4357701370536276       -0.6608366450312715
2130000000               0.3659824232807459       -0.700818127341377
2.16E9                   0.29263401330752253      -0.7334436039943437
2.19E9                   0.2165022320836446       -0.7584070067163946
2.22E9                   0.13839044965835753      -0.7754862188433789
2.25E9                   0.05911813490883802      -0.7845461435290769
2.28E9                   -0.020490230461780713    -0.7855402253627264
2.31E9                   -0.09961701419069834     -0.7785095690504369
2.34E9                   -0.1774629516215656      -0.7635789014980285
2.37E9                   -0.2532564708489941      -0.7409494695853482
2.4E9                    -0.3262590836977201      -0.7108905068803546
2.43E9                   -0.3957666715929561      -0.673732147679596
2.46E9                   -0.46110886327751627     -0.6298621852731011
2.49E9                   -0.5216499227717927      -0.5797266740613826
2.52E9                   -0.5767933897811327      -0.5238318824405614
2.55E9                   -0.6259901813166531      -0.46274453542243177
2.58E9                   -0.668748096697159       -0.39708868644141915
2.61E9                   -0.7046405906982747      -0.3275393701935889
2.64E9                   -0.7333136285938724      -0.2548141672715363
2.67E9                   -0.7544904018594336      -0.1796638521633471
2.7E9                    -0.7679741991012181      -0.1028628982266052
2.73E9                   -0.7736498413435039      -0.02520020691214252
2.76E9                   -0.7714840109262436      0.05252982461338477
2.79E9                   -0.7615246826831954      0.12953589242662752
2.82E9                   -0.7438997712911732      0.2050380505500864
2.85E9                   -0.7188150520598632      0.2782756583776154
2.88E9                   -0.6865513858262885      0.34851499665038727
2.91E9                   -0.6474612707272482      0.4150565192721808
2.94E9                   -0.6019647456734959      0.4772416956606549
2.97E9                   -0.5505446770989935      0.5344593914122915
3.0E9                    -0.49374146891622045     0.5861517328967619
3.03E9                   -0.43214724411866623     0.6318194026963745
3.06E9                   -0.3663995543904388      0.6710263167349771
3.09E9                   -0.29717468071452435     0.7034036399960985
3.12E9                   -0.2251805933796038      0.7286531050506566
3.15E9                   -0.151149643289091       0.746549606092338
3.18E9                   -0.07583105802609609     0.7569430499333545
3.21E9                   1.6684245092868365E-5    0.7597594537851411
3.24E9                   0.07563353209175522      0.7550012868456353
3.27E9                   0.15026552155324194      0.742747058032825
3.3E9                    0.22317235552957904      0.723150155246552
3.33E9                   0.29363483875701385      0.6964369425992069
3.36E9                   0.360962104465631        0.6629041219290248
3.39E9                   0.42449856473076564      0.6229153651189754
3.42E9                   0.48363050891332693      0.5768972262662578
3.45E9                   0.5377922646497391       0.5253343496159569
3.48E9                   0.5864718252278263       0.4687640024067865
3.51E9                   0.6292158393568017       0.40776998231790346
3.54E9                   0.6656338582327689       0.34297597652242984
3.57E9                   0.6954017444322731       0.2750384804743666
3.6E9                    0.7182641699249136       0.20463941404048477
3.63E9                   0.7340361653492473       0.13247859388548988
3.66E9                   0.7426037248017778       0.059266228713048735
3.69E9                   0.743923512605377        -0.014284403660272697
3.72E9                   0.7380217545263318       -0.08746395810998672
3.75E9                   0.7249924238406656       -0.1595735904658818
3.78E9                   0.7049948545772406       -0.22993101066573748
3.81E9                   0.6782509323490686       -0.29787597642043734
3.84E9                   0.6450420238424975       -0.36277523167924186
3.87E9                   0.6057057979763016       -0.4240269554821395
3.9E9                    0.5606330518351852       -0.4810648501543902
3.93E9                   0.5102645783739476       -0.5333620415687464
3.96E9                   0.45508801399506016      -0.5804349640173112
3.99E9                   0.395634511851609        -0.6218473465963198
4.02E9                   0.3324750345396176       -0.6572143169178749
4.05E9                   0.2662160684657144       -0.6862065216457742
4.08E9                   0.19749462974084403      -0.7085540683476492
4.11E9                   0.1269725352616046       -0.7240500469699748
4.14E9                   0.055330020345531854     -0.7325534002214765
4.17E9                   -0.01674113292210695     -0.7339909699218015
4.2E9                    -0.08854475109268858     -0.7283586287954086
4.23E9                   -0.15938750507346527     -0.7157214896893476
4.26E9                   -0.22858605842100027     -0.6962132468785485
4.29E9                   -0.29547401264563683     -0.6700347362992777
4.32E9                   -0.3594085845611374      -0.6374518029120941
4.35E9                   -0.4197769851602898      -0.5987925428122223
4.38E9                   -0.4760024816604489      -0.5544439590365189
4.41E9                   -0.5275501165117756      -0.5048480467699219
4.44E9                   -0.5739320379123367      -0.4504973143704824
4.47E9                   -0.6147123759521961      -0.3919297530819339
4.5E9                    -0.6495115849714422      -0.32972328695031217
4.53E9                   -0.6780101701211927      -0.2644897593351651
4.56E9                   -0.6999517251881474      -0.19686853759021639
4.59E9                   -0.7151452281556264      -0.12751983828782662
4.62E9                   -0.7234665683146578      -0.05711788773772587
4.65E9                   -0.7248593101657727      0.013655966955226376
4.68E9                   -0.7193347288195361      0.08412009435171014
4.71E9                   -0.7069711713560948      0.15359928662238312
4.74E9                   -0.687912801668203       0.22143129449976337
4.77E9                   -0.6623677707457925      0.2869731709779404
4.8E9                    -0.6306058262079322      0.3496074150138103
4.83E9                   -0.5929553473183979      0.4087478935010726
4.86E9                   -0.5497997788381952      0.46384548915310025
4.89E9                   -0.5015734476885663      0.5143933855834618
4.92E9                   -0.448756779267422       0.5599318742726139
4.95E9                   -0.3918709764401503      0.6000525617322435
4.98E9                   -0.3314722709946839      0.6344018729729063
5.01E9                   -0.2681458930126692      0.662683786437519
5.04E9                   -0.20249991935263367     0.6846617888089991
5.07E9                   -0.13515915267812845     0.7001600954834384
5.1E9                    -0.06675914597432744     0.709064231216463
5.13E9                   0.0020595706884355635    0.7113210912966301
5.16E9                   0.07065706977562024      0.7069385945543707
5.19E9                   0.13839947112404546      0.6959849934587354
5.22E9                   0.20466432293383258      0.6785878374860609
5.25E9                   0.268845953641949        0.6549325232661922
5.28E9                   0.33036075822945393      0.6252603410547466
5.31E9                   0.3886523106410371       0.5898659580369965
5.34E9                   0.4431961596123959       0.549094352182771
5.37E9                   0.49350418722300643      0.5033372898031162
5.4E9                    0.5391284769819432       0.4530294868174412
5.43E9                   0.5796647181078186       0.3986445883447141
5.46E9                   0.6147552300277408       0.34069105054113474
5.49E9                   0.6440917063254954       0.27970793781534903
5.52E9                   0.6674177507841034       0.21626058566260073
5.55E9                   0.6845312242540026       0.15093604303476027
5.58E9                   0.69528635807688         0.08433820529562458
5.61E9                   0.6995955336527602       0.017082576717956537
5.64E9                   0.6974305898923565       -0.05020934587041927
5.67E9                   0.6888235101861305       -0.11691600870168249
5.7E9                    0.6738663656102176       -0.18242192550216177
5.73E9                   0.6527104533112426       -0.246123806752001
5.76E9                   0.6255646566963045       -0.3074364958579891
5.79E9                   0.5926931384223412       -0.3657985539273984
5.82E9                   0.5544125222832982       -0.42067741744830833
5.85E9                   0.5110887046798379       -0.4715741431993492
5.88E9                   0.4631333711454955       -0.5180278097326506
5.91E9                   0.41100021571449424      -0.5596196429854733
5.94E9                   0.35518080980672073      -0.5959768856492526
5.97E9                   0.296200060782455        -0.6267763669404058
6.0E9                    0.234611230927964        -0.6517476808952768
