% Model:              three_layers reality at 0.1mm.mph
% Version:            COMSOL 5.6.0.280
% Date:               Mar 8 2022, 10:45
% Table:              表格 1 - 全局计算 1
% freq (Hz)              real(emw.S11) (1)        imag(emw.S11) (1)
300000000                0.43692638365306746      -0.821715992558967
330000000                0.3475897198688186       -0.8607355077932151
360000000                0.2550363746492376       -0.8902455711601942
390000000                0.16023624582872797      -0.909992637590344
420000000                0.064185228483651        -0.9198197111236435
450000000                -0.032106019027944833    -0.9196701146076839
480000000                -0.12762345437645628     -0.9095895793222198
510000000                -0.2213610336208527      -0.8897267962182207
540000000                -0.3123319631140633      -0.8603325358497247
570000000                -0.39957969372177166     -0.8217574258599962
600000000                -0.48218853549464846     -0.7744484666488134
630000000                -0.559293775207392       -0.7189443649558476
660000000                -0.6300911862970935      -0.65586976728283
690000000                -0.6938458258504872      -0.5859284812223352
720000000                -0.7499000230238707      -0.509895778152658
750000000                -0.7976804710848676      -0.4286098786115453
780000000                -0.8367043461750175      -0.3429627281966015
810000000                -0.8665843872314124      -0.25389017810192066
840000000                -0.8870328837036855      -0.16236168965840062
870000000                -0.897864530638376       -0.06936968675256534
900000000                -0.8989981242809924      0.02408131728173401
930000000                -0.8904570852170187      0.11698569012179799
960000000                -0.8723688100846584      0.20834762018832276
990000000                -0.844962866792579       0.2971918991486814
1020000000               -0.8085680618417701      0.38257442368911393
1050000000               -0.7636084215319632      0.46359229781417366
1080000000               -0.7105981412665445      0.5393934229828811
1110000000               -0.6501355689354659      0.6091854705265874
1140000000               -0.5828962988352462      0.6722441398357956
1170000000               -0.5096254622850037      0.7279206149711182
1200000000               -0.43112930920362214     0.7756481433034325
1230000000               -0.3482661820065814      0.8149476708792931
1260000000               -0.2619369886190696      0.8454324811973278
1290000000               -0.17307528557980484     0.8668117963240445
1320000000               -0.08263708502333565     0.8788933117306021
1350000000               0.0084094997323108       0.8815846488571334
1380000000               0.09909465482226008      0.8748937216663679
1410000000               0.18845719952647874      0.8589280257346479
1440000000               0.27555474208449765      0.8338928700381575
1470000000               0.3594735509078113       0.8000885828340062
1500000000               0.439338039121928        0.7579067335364311
1530000000               0.5143197664921232       0.707825422330441
1560000000               0.583645869547186        0.6504036981842548
1590000000               0.6466068381523571       0.5862751741187605
1620000000               0.7025635651770537       0.5161409157247843
1650000000               0.75095360453074         0.4407616852029743
1680000000               0.7912965821554349       0.3609496284619187
1710000000               0.8231987141198136       0.2775594970813457
1740000000               0.8463563958314982       0.19147950033004799
1770000000               0.8605588365460254       0.10362188458715907
1800000000               0.8656897235651851       0.014913338891327938
1830000000               0.8617279109344906       -0.07371467450606016
1860000000               0.8487471379166774       -0.16133556664458015
1890000000               0.8269147930190415       -0.2470371496823173
1920000000               0.7964897498040515       -0.3299309539535977
1950000000               0.7578193109913202       -0.4091612476625537
1980000000               0.7113353070401285       -0.4839136804901849
2010000000               0.6575494039447606       -0.553423482907501
2040000000               0.5970476806636695       -0.6169831678665263
2070000000               0.5304845372416015       -0.6739497001243957
2100000000               0.45857598529347077      -0.7237511215029582
2130000000               0.38209234654695534      -0.7658926435053521
2.16E9                   0.30185033369315395      -0.7999622321651384
2.19E9                   0.21870440567642274      -0.825635690499086
2.22E9                   0.13353718729206854      -0.8426811521774114
2.25E9                   0.04724867487814937      -0.8509626865165469
2.28E9                   -0.03925595794549306     -0.8504423655225399
2.31E9                   -0.12507970296950896     -0.841179777461033
2.34E9                   -0.20934708600051383     -0.823327947720451
2.37E9                   -0.291215463226843       -0.7971254476576054
2.4E9                    -0.3698819871629156      -0.7628862299123558
2.43E9                   -0.4445855289793535      -0.7209904207831058
2.46E9                   -0.5146056050766205      -0.6718791898092493
2.49E9                   -0.5792621735669424      -0.61605433423809
2.52E9                   -0.6379192953213974      -0.5540801882173115
2.55E9                   -0.6899929010679413      -0.4865843633408122
2.58E9                   -0.7349606600255293      -0.41425508417269513
2.61E9                   -0.7723715299660475      -0.3378349108802879
2.64E9                   -0.8018534620690769      -0.258111915147805
2.67E9                   -0.8231188147881023      -0.17590959495371167
2.7E9                    -0.8359676848410941      -0.0920764571311779
2.73E9                   -0.8402895665251139      -0.00747575760826763
2.76E9                   -0.8360637064310575      0.077024411880251
2.79E9                   -0.8233584046163513      0.160560648697093
2.82E9                   -0.8023294106241773      0.24228337966097901
2.85E9                   -0.7732174963284688      0.32136561942092406
2.88E9                   -0.73634525320773        0.39701133160594293
2.91E9                   -0.6921131485101422      0.46846336009895784
2.94E9                   -0.6409948739475132      0.5350108842664971
2.97E9                   -0.5835320256819715      0.5959963447019764
3.0E9                    -0.5203281622154602      0.6508217830414796
3.03E9                   -0.4520422952426218      0.6989545405562111
3.06E9                   -0.3793818766147896      0.7399322641575241
3.09E9                   -0.3030953516837281      0.7733671747308368
3.12E9                   -0.2239643549380002      0.7989495606983863
3.15E9                   -0.1427956276722256      0.8164504689362823
3.18E9                   -0.06041273905366591     0.8257235749134981
3.21E9                   0.022352308771550256     0.8267062233889146
3.24E9                   0.10466751355705278      0.8194196391684792
3.27E9                   0.18570927003422996      0.8039683134679829
3.3E9                    0.26467066154595287      0.7805385747635866
3.33E9                   0.3407695795593732       0.7493963537298107
3.36E9                   0.4132566043384969       0.7108841508346986
3.39E9                   0.4814225761955941       0.6654172139987298
3.42E9                   0.5446057785179284       0.6134789346570557
3.45E9                   0.6021986420076844       0.5556154761768465
3.48E9                   0.6536538662298015       0.4924296613619379
3.51E9                   0.6984898433359241       0.4245741673003187
3.54E9                   0.7362952643388418       0.3527441059452733
3.57E9                   0.766732795572504        0.27766910480163415
3.6E9                    0.7895417354968445       0.20010503775253086
3.63E9                   0.8045395993509659       0.12082558397147036
3.66E9                   0.8116226265616042       0.04061380602750036
3.69E9                   0.8107652552329452       -0.03974606622519783
3.72E9                   0.802018651775775        -0.11947647849446152
3.75E9                   0.7855084189947885       -0.19781388285568988
3.78E9                   0.7614316345372463       -0.2740154516067574
3.81E9                   0.7300533963012286       -0.3473651111362573
3.84E9                   0.6917030685838079       -0.41717888846483214
3.87E9                   0.646770419748307        -0.48280963531685767
3.9E9                    0.5957018026845627       -0.543651272771917
3.93E9                   0.5389964460344473       -0.5991427589627474
3.96E9                   0.47720280955503364      -0.648771993990016
3.99E9                   0.4109148437139082       -0.6920798231091091
4.02E9                   0.3407679211492589       -0.7286641893809196
4.05E9                   0.2674342032507703       -0.7581843525068624
4.08E9                   0.19161727089286684      -0.7803649737848783
4.11E9                   0.11404596140977077      -0.7949998021089474
4.14E9                   0.035467477886495756     -0.8019546961362896
4.17E9                   -0.04336006229462868     -0.8011697743432498
4.2E9                    -0.12167541660821435     -0.7926605743432552
4.23E9                   -0.19872211497699901     -0.7765181973848724
4.26E9                   -0.2737562709502163      -0.7529084895964615
4.29E9                   -0.3460541685749444      -0.7220703539589306
4.32E9                   -0.41491954543270054     -0.684313293878008
4.35E9                   -0.4796905347935758      -0.640014269053226
4.38E9                   -0.5397462475091321      -0.5896139123970241
4.41E9                   -0.5945129684645348      -0.5336121287067829
4.44E9                   -0.6434699218817985      -0.4725630824393389
4.47E9                   -0.6861545361515452      -0.40706958644442875
4.5E9                    -0.7221671217358399      -0.33777692269961884
4.53E9                   -0.7511748703727886      -0.2653661535516378
4.56E9                   -0.7729150917667624      -0.19054701105567162
4.59E9                   -0.787197624190015       -0.11405047709472989
4.62E9                   -0.7939063855879045      -0.036621183174516424
4.65E9                   -0.7930000677840539      0.04099023813731423
4.68E9                   -0.7845120115085039      0.11803473131819307
4.71E9                   -0.7685493251237001      0.19377223515853537
4.74E9                   -0.745291316426688       0.2674788856183266
4.77E9                   -0.7149872913356724      0.33845398316793607
4.8E9                    -0.6779537415222064      0.4060267179148662
4.83E9                   -0.6345709095002446      0.46956263461901016
4.86E9                   -0.5852787013123443      0.5284697861831688
4.89E9                   -0.5305719247559504      0.5822044822053097
4.92E9                   -0.47099486557307557     0.630276505651378
4.95E9                   -0.40713526566870595     0.6722536592978009
4.98E9                   -0.3396178221889221      0.7077655197062726
5.01E9                   -0.26909737031609743     0.7365063181847139
5.04E9                   -0.19625193511700056     0.7582369280500281
5.07E9                   -0.12177583127363736     0.7727860045514662
5.1E9                    -0.046372951358118544    0.7800503833926542
5.13E9                   0.029249682009692714     0.7799948789769346
5.16E9                   0.10438810172937973      0.7726516191281464
5.19E9                   0.17834738406348177      0.7581190045131203
5.22E9                   0.2504475245384722       0.7365603022707247
5.25E9                   0.32002925265954335      0.7082018073632284
5.28E9                   0.38645975721880693      0.6733304703588602
5.31E9                   0.4491382089759752       0.6322909185979518
5.34E9                   0.5075009216258796       0.5854818779790206
5.37E9                   0.5610260102415444       0.5333520953061485
5.4E9                    0.6092374799436663       0.4763959205273615
5.43E9                   0.6517087701219726       0.4151487086201325
5.46E9                   0.6880658502306908       0.3501821471486176
5.49E9                   0.7179899872528783       0.28209953474236305
5.52E9                   0.7412202800470816       0.21153096025615337
5.55E9                   0.7575559969462571       0.13912828504173935
5.58E9                   0.7668586806286172       0.06555982100261741
5.61E9                   0.7690539168751048       -0.008495376304201484
5.64E9                   0.7641326153446247       -0.08235362381816035
5.67E9                   0.7521516324175228       -0.15533308365383347
5.7E9                    0.7332335884351316       -0.22676045647887616
5.73E9                   0.707565798141232        -0.29597769287294057
5.76E9                   0.6753983324732975       -0.36234849668835306
5.79E9                   0.6370413300529947       -0.4252644328898768
5.82E9                   0.5928617355380696       -0.4841505438336145
5.85E9                   0.543279631725717        -0.5384704832829968
5.88E9                   0.4887642615867742       -0.5877312468317396
5.91E9                   0.42982974626982123      -0.6314875824577744
5.94E9                   0.36703044153865694      -0.6693461143907024
5.97E9                   0.3009558614412209       -0.7009691417187378
6.0E9                    0.2322251284497334       -0.7260780145948185
