% Model:              three_layers reality at 0.1mm.mph
% Version:            COMSOL 5.6.0.280
% Date:               Feb 21 2022, 20:58
% Table:              表格 1 - 全局计算 1
% freq (Hz)              real(emw.S11) (1)        imag(emw.S11) (1)
300000000                0.5000197140883248       -0.8268268900891367
330000000                0.4132551646246036       -0.8716814481170858
360000000                0.3226632451969218       -0.9074873606774251
390000000                0.2291694988739808       -0.9339350261568775
420000000                0.13372646706872882      -0.950807459319784
450000000                0.03730361145903789      -0.9579835927273441
480000000                -0.05912304813351099     -0.9554400920437631
510000000                -0.15458137556051313     -0.9432517955242009
540000000                -0.24811347387888683     -0.921590867608639
570000000                -0.33878581363775173     -0.8907247463763386
600000000                -0.42569900798978744     -0.8510129610440451
630000000                -0.5079971207600578      -0.8029028967746484
660000000                -0.5848764049673264      -0.7469245872035243
690000000                -0.655593378391096       -0.6836846202580391
720000000                -0.7194721536899599      -0.6138592480057051
750000000                -0.7759109512035494      -0.5381867963581118
780000000                -0.824387733185014       -0.4574594755522163
810000000                -0.8644649102999218      -0.37251469576579255
840000000                -0.8957930825961546      -0.2842259954302974
870000000                -0.9181137893130047      -0.19349369142452977
900000000                -0.9312612538871632      -0.10123536084147913
930000000                -0.935163122368122       -0.008376263451731545
960000000                -0.9298402051456904      0.0841601882747211
990000000                -0.9154052429971303      0.1754618073474445
1020000000               -0.8920607291950584      0.26463675930444686
1050000000               -0.8600958293156735      0.35082234359956527
1080000000               -0.819882449568707       0.43319334148599326
1110000000               -0.7718705127393272      0.5109698494799315
1140000000               -0.7165825081449915      0.583424525456107
1170000000               -0.6546073882494856      0.6498891829686452
1200000000               -0.586593889829399       0.7097606781996147
1230000000               -0.5132433617302093      0.7625060432865255
1260000000               -0.4353021841238466      0.8076668293603648
1290000000               -0.35355386635602815     0.8448626319477346
1320000000               -0.2688109111212235      0.8737937811164577
1350000000               -0.18190653272455554     0.894243187931201
1380000000               -0.0936863160130324      0.9060773479137261
1410000000               -0.004999900588071072    0.9092465108866646
1440000000               0.0833072279591459       0.9037840348312056
1470000000               0.1704017616227061       0.889804949127266
1500000000               0.25547033442997336      0.8675037596934572
1530000000               0.33772695877383935      0.8371515350910826
1560000000               0.41642006992282127      0.7990923185326491
1590000000               0.49083912085273307      0.753738915922462
1620000000               0.5603206756655567       0.7015681145721184
1650000000               0.6242539562927694       0.6431153910374824
1680000000               0.6820858037987624       0.5789691696338011
1710000000               0.7333250224109499       0.5097646956252845
1740000000               0.7775460812854477       0.43617758882642726
1770000000               0.8143921560082504       0.3589171444732216
1800000000               0.8435774989114257       0.27871944858190373
1830000000               0.8648891343643386       0.19634037486971792
1860000000               0.8781878825244601       0.11254852917729892
1890000000               0.8834087223852383       0.02811820552701688
1920000000               0.8805605125850118       -0.056177585041114565
1950000000               0.8697250962665767       -0.13957395620547638
1980000000               0.851055824179856        -0.22132080870358553
2010000000               0.8247755377352863       -0.30068927307119475
2040000000               0.7911740596834549       -0.3769779070405341
2070000000               0.7506052418621234       -0.44951864254002505
2100000000               0.7034836119299176       -0.5176825055051835
2130000000               0.650280635205986        -0.580885166366391
2.16E9                   0.5915205500597395       -0.6385924122379266
2.19E9                   0.5277756307231833       -0.6903256401695673
2.22E9                   0.45966057636715835      -0.7356674061126512
2.25E9                   0.38782556025466236      -0.7742668507493711
2.28E9                   0.3129474326306461       -0.8058443950796278
2.31E9                   0.23571890742565832      -0.8301945156379538
2.34E9                   0.15683651578865218      -0.8471850351660543
2.37E9                   0.07698950910415601      -0.8567518855717839
2.4E9                    -0.0031472439247137276   -0.858890179706317
2.43E9                   -0.08291437560695361     -0.8536448995157443
2.46E9                   -0.16166426551867233     -0.8411054528571269
2.49E9                   -0.23875650310244137     -0.8214063011428557
2.52E9                   -0.3135568639826463      -0.794732165286701
2.55E9                   -0.3854414783039033      -0.7613240256404663
2.58E9                   -0.4538049000972749      -0.7214826454680296
2.61E9                   -0.5180695411399848      -0.6755684195142955
2.64E9                   -0.5776944218309298      -0.6239980934671827
2.67E9                   -0.632182293163015       -0.5672395541038483
2.7E9                    -0.6810850363837835      -0.505805745269705
2.73E9                   -0.7240076343589319      -0.44024835643991267
2.76E9                   -0.7606110706649336      -0.37115157900805373
2.79E9                   -0.790614435187046       -0.2991260168615745
2.82E9                   -0.8137964135240483      -0.2248027455227465
2.85E9                   -0.8299962570789253      -0.14882748940988097
2.88E9                   -0.8391142794737766      -0.07185489213622852
2.91E9                   -0.8411118968715174      0.0054571301375251225
2.94E9                   -0.8360112170727657      0.08245294695216447
2.97E9                   -0.8238941785607372      0.15848466566045893
3.0E9                    -0.804901241963293       0.23291745089186633
3.03E9                   -0.7792296402521335      0.3051346791519376
3.06E9                   -0.7471311990710208      0.3745428934340569
3.09E9                   -0.7089097440750134      0.44057652195556457
3.12E9                   -0.6649181174674171      0.5027023263936751
3.15E9                   -0.6155548305695349      0.5604235478226547
3.18E9                   -0.5612603826115333      0.6132837228444581
3.21E9                   -0.5025132775830081      0.6608701472845369
3.24E9                   -0.4398257706270914      0.7028169696272917
3.27E9                   -0.37373937306644334     0.7388079000415413
3.3E9                    -0.30482014161617327     0.7685785221924216
3.33E9                   -0.23365377364340284     0.7919181935118571
3.36E9                   -0.16084052821561523     0.8086715149384957
3.39E9                   -0.08698999378149477     0.818739344029067
3.42E9                   -0.012715729247747021    0.8220793172168682
3.45E9                   0.06137018321118681      0.8187058401810408
3.48E9                   0.13466261794843817      0.8086895027158442
3.51E9                   0.20656884126411726      0.7921558794683161
3.54E9                   0.2765138034754303       0.7692836930977996
3.57E9                   0.34394517128793733      0.7403023427935852
3.6E9                    0.4083379774208382       0.7054888363637898
3.63E9                   0.46919877254092235      0.6651642026685883
3.66E9                   0.5260691880275836       0.6196894952018265
3.69E9                   0.5785288526417361       0.5694615203853213
3.72E9                   0.6261976444303063       0.5149084334904134
3.75E9                   0.6687372957571363       0.4564853438815429
3.78E9                   0.705852403772743        0.3946700642675747
3.81E9                   0.7372909354300923       0.32995912623148105
3.84E9                   0.7628443579253162       0.26286415990870443
3.87E9                   0.7823475661808189       0.19390868839775932
3.9E9                    0.7956788011931852       0.1236253128142318
3.93E9                   0.8027597355563828       0.05255317271512958
3.96E9                   0.8035558342263898       -0.01876451435923491
3.99E9                   0.7980769893932458       -0.08978306912561283
4.02E9                   0.7863783087450579       -0.15995933336464832
4.05E9                   0.7685608445288509       -0.22875514638140745
4.08E9                   0.7447720151082895       -0.29564132455298203
4.11E9                   0.7152054982828873       -0.3601020382746206
4.14E9                   0.6801004520203109       -0.4216393994445735
4.17E9                   0.6397400164129288       -0.4797780417242818
4.2E9                    0.5944491422123367       -0.5340694942748051
4.23E9                   0.5445918552468465       -0.5840962033159814
4.26E9                   0.4905680925319622       -0.6294751244648316
4.29E9                   0.4328102367429756       -0.6698608718170616
4.32E9                   0.37177944171304156      -0.7049484520269188
4.35E9                   0.30796179884775515      -0.7344756264410512
4.38E9                   0.24186435799918266      -0.7582249346806935
4.41E9                   0.17401099698415143      -0.7760253885470906
4.44E9                   0.10493813352774808      -0.7877538183001299
4.47E9                   0.0351902882333695       -0.7933358338226193
4.5E9                    -0.03468447055460189     -0.7927463560702158
4.53E9                   -0.1041391465101155      -0.7860096797196164
4.56E9                   -0.1726324285178265      -0.7731990436805514
4.59E9                   -0.23963321656253803     -0.7544357088000937
4.62E9                   -0.3046249805376663      -0.7298875679656102
4.65E9                   -0.36710988476597284     -0.6997673383174554
4.68E9                   -0.4266126349856735      -0.6643304022873568
4.71E9                   -0.4826840352467563      -0.6238723673547814
4.74E9                   -0.5349042710046259      -0.5787264000115574
4.77E9                   -0.5828859504185073      -0.5292603602097555
4.8E9                    -0.6262769305585443      -0.47587372865021715
4.83E9                   -0.6647629287803207      -0.41899429507298375
4.86E9                   -0.6980698817877125      -0.35907457269340126
4.89E9                   -0.7259659806107484      -0.2965879254347074
4.92E9                   -0.7482632925256869      -0.2320244339066377
4.95E9                   -0.7648188873538685      -0.1658865708219318
4.98E9                   -0.7755354144699904      -0.09868479395542894
5.01E9                   -0.7803611217054045      -0.030933185173048973
5.04E9                   -0.7792893589314294      0.03685473807358471
5.07E9                   -0.7723576567596174      0.10416993889985854
5.1E9                    -0.7596465026503012      0.17051145353673824
5.13E9                   -0.74127794090737        0.23538967101828648
5.16E9                   -0.7174140923207448      0.2983293694495397
5.19E9                   -0.6882556275487572      0.3588726118195575
5.22E9                   -0.6540401552922837      0.41658159453251314
5.25E9                   -0.6150404328478878      0.4710414868207875
5.28E9                   -0.5715623005864495      0.5218632201776686
5.31E9                   -0.5239422900182803      0.5686861215926753
5.34E9                   -0.47254493553585963     0.6111802664020396
5.37E9                   -0.4177598927775308      0.6490484656146946
5.4E9                    -0.35999899687776615     0.6820278784750649
5.43E9                   -0.2996933702955267      0.7098913171073625
5.46E9                   -0.23729062745140111     0.7324483541335839
5.49E9                   -0.17325215058850693     0.7495463431912476
5.52E9                   -0.10805035491049342     0.7610714228140685
5.55E9                   -0.04216583545897166     0.7669495140866834
5.58E9                   0.02391570431370678      0.7671472602520836
5.61E9                   0.08970680723774045      0.7616728059084558
5.64E9                   0.15472191053669385      0.7505762835161414
5.67E9                   0.21848123181305024      0.7339498725197977
5.7E9                    0.28051477320211976      0.7119273270459843
5.73E9                   0.34036627964371124      0.684682932008116
5.76E9                   0.3975969832798205       0.6524299316620318
5.79E9                   0.4517890130143439       0.6154185505983761
5.82E9                   0.5025484333984354       0.5739337608711225
5.85E9                   0.5495079636119027       0.5282929229581276
5.88E9                   0.5923294751179536       0.4788433564737658
5.91E9                   0.6307063573826579       0.4259598172254635
5.94E9                   0.6643657883140279       0.37004180774383477
5.97E9                   0.6930708818201595       0.311510643675208
6.0E9                    0.7166226369449422       0.250806229061909
