% Model:              three_layers reality at 0.1mm.mph
% Version:            COMSOL 5.6.0.280
% Date:               Feb 24 2022, 22:15
% Table:              表格 1 - 全局计算 1
% freq (Hz)              real(emw.S11) (1)        imag(emw.S11) (1)
300000000                0.6005228239837543       -0.7300032769881813
330000000                0.5347539122965487       -0.7787651203061977
360000000                0.46513597346683366      -0.8216780276190919
390000000                0.392176625299989        -0.8584354559814026
420000000                0.31641013354393854      -0.888775494674516
450000000                0.2383928978632165       -0.9124830264577999
480000000                0.15869895152354305      -0.9293915005203948
510000000                0.07791543981035094      -0.9393843134926745
540000000                -0.003361931650781358    -0.9423957954969908
570000000                -0.08453347048157518     -0.9384117981664087
600000000                -0.16500007418563298     -0.9274698827051134
630000000                -0.2441677860679696      -0.9096591081909469
660000000                -0.3214523030598433      -0.8851194222349046
690000000                -0.3962834046871906      -0.8540406589348619
720000000                -0.4681092730826677      -0.8166611513867482
750000000                -0.5364006718381579      -0.7732659691993096
780000000                -0.6006549527889518      -0.7241847940344096
810000000                -0.660399859949317       -0.6697894492353799
840000000                -0.7151971012106471      -0.6104911022637514
870000000                -0.7646456596444209      -0.5467371614939999
900000000                -0.8083848181139331      -0.47900789161807333
930000000                -0.8460968732790702      -0.40781277394876353
960000000                -0.8775095171686378      -0.3336866404470069
990000000                -0.9023978672085055      -0.25718561228965753
1020000000               -0.9205861286060384      -0.17888287528435015
1050000000               -0.9319488759185952      -0.0993643259633904
1080000000               -0.9364119438391315      -0.019224123351668804
1110000000               -0.9339529205377016      0.06093981792300032
1140000000               -0.9246012402959857      0.14053035680184797
1170000000               -0.9084378755464         0.21895564125529524
1200000000               -0.8855946317788677      0.2956335738641324
1230000000               -0.8562530522831024      0.36999619166543835
1260000000               -0.8206429426681133      0.4414939264014088
1290000000               -0.779040528581298       0.5095997110723833
1320000000               -0.7317662627406154      0.5738129014096655
1350000000               -0.6791823004292189      0.6336629819117663
1380000000               -0.6216896649330311      0.6887130286630331
1410000000               -0.5597251271148055      0.7385629028868621
1440000000               -0.4937578250856822      0.782852152137461
1470000000               -0.42428565189751277     0.8212625984166417
1500000000               -0.35183144079728335     0.8535205952357563
1530000000               -0.2769389787987221      0.879398938579929
1560000000               -0.2001688803450893      0.8987184196306144
1590000000               -0.12209435328041902     0.9113490101285104
1620000000               -0.04329689034231805     0.9172106740385075
1650000000               0.035638081239010334     0.9162738023737762
1680000000               0.11412555886473577      0.9085592707368036
1710000000               0.19158530023612244      0.8941381220731117
1740000000               0.2674461034883002       0.8731308798245151
1770000000               0.34115000087629926      0.8457064993339781
1800000000               0.4121563360582357       0.8120809678307874
1830000000               0.4799456962170563       0.7725155656976125
1860000000               0.5440236715752889       0.727314804005563
1890000000               0.6039244166126043       0.6768240552673197
1920000000               0.6592139887236439       0.6214268963853198
1950000000               0.709493442019015        0.5615421844320972
1980000000               0.7544016556877559       0.4976208876205697
2010000000               0.7936178785958532       0.43014269496676394
2040000000               0.8268639734130002       0.35961242987303754
2070000000               0.8539063461392413       0.28655629343329186
2100000000               0.8745575487289927       0.2115179645714672
2130000000               0.8886775448693975       0.1350545847726749
2.16E9                   0.896174631216233        0.05773265572724356
2.19E9                   0.8970060086422195       -0.019876121264709896
2.22E9                   0.8911780003831744       -0.09719903520250381
2.25E9                   0.8787459162615836       -0.17366655515682017
2.28E9                   0.8598135645105615       -0.24871649127829196
2.31E9                   0.8345324149544162       -0.3217980980508637
2.34E9                   0.8031004195033842       -0.3923760917534176
2.37E9                   0.7657604978275355       -0.45993455485990964
2.4E9                    0.7227986979404716       -0.5239807005431326
2.43E9                   0.6745420424439932       -0.5840484719045235
2.46E9                   0.6213560724556886       -0.6397019500836514
2.49E9                   0.5636421018479508       -0.6905385453755262
2.52E9                   0.5018341967154518       -0.7361919429610548
2.55E9                   0.43639589947872753      -0.7763347724831071
2.58E9                   0.3678167258296027       -0.8106809696976353
2.61E9                   0.2966084741797927       -0.8389878036853387
2.64E9                   0.2233013953532023       -0.8610575572490445
2.67E9                   0.14844026711684394      -0.8767388669635896
2.7E9                    0.07258040098747535      -0.8859277413852061
2.73E9                   -0.003716411709682177    -0.8885682705322936
2.76E9                   -0.07988601523164612     -0.8846530203777786
2.79E9                   -0.15536605637557807     -0.874223088711692
2.82E9                   -0.22960017327753546     -0.8573677960350242
2.85E9                   -0.30204216190693345     -0.8342239964621078
2.88E9                   -0.3721600727209592      -0.8049750090017295
2.91E9                   -0.43944019480334806     -0.7698491810427552
2.94E9                   -0.503390891329457       -0.7291181016743117
2.97E9                   -0.5635462560616452      -0.6830944842854674
3.0E9                    -0.6194695638671175      -0.6321297384887568
3.03E9                   -0.6707564902316404      -0.5766112521664254
3.06E9                   -0.7170380765664149      -0.5169594053688482
3.09E9                   -0.7579834191653847      -0.4536243398051422
3.12E9                   -0.7933020618707511      -0.3870825091512095
3.15E9                   -0.8227460744419379      -0.31783303733600693
3.18E9                   -0.8461118010238716      -0.246393913702729
3.21E9                   -0.8632412659087945      -0.17329805516086252
3.24E9                   -0.8740232265391417      -0.09908926665853557
3.27E9                   -0.8783938667002931      -0.02431813206593672
3.3E9                    -0.8763371258728587      0.05046213198606349
3.33E9                   -0.8678846637683293      0.1246998266185758
3.36E9                   -0.8531154620817754      0.19784889306536446
3.39E9                   -0.8321550685010308      0.2693729746515854
3.42E9                   -0.8051744908693875      0.33874938725977843
3.45E9                   -0.7723887522661927      0.40547296766354385
3.48E9                   -0.7340551203909836      0.46905977079164246
3.51E9                   -0.69047102717954        0.5290505882838137
3.54E9                   -0.641971696974704       0.5850142623992752
3.57E9                   -0.5889275037100561      0.6365507713825137
3.6E9                    -0.5317410795040562      0.6832940644814087
3.63E9                   -0.4708441987919989      0.7249146270975192
3.66E9                   -0.40669446359137895     0.7611217589649745
3.69E9                   -0.33977181660318295     0.791665550844031
3.72E9                   -0.2705749096612977      0.8163385477715113
3.75E9                   -0.1996173558403939      0.8349770893521424
3.78E9                   -0.12742389357629236     0.8474623202167783
3.81E9                   -0.05452649149870279     0.8537208660205814
3.84E9                   0.018539577294425236     0.8537251726715079
3.87E9                   0.09123966289212149      0.8474935087466383
3.9E9                    0.1630436395216231       0.8350896332858714
3.93E9                   0.23342975135365035      0.8166221335596552
3.96E9                   0.3018883751000672       0.7922434399020963
3.99E9                   0.367925671887296        0.7621485274276874
4.02E9                   0.43106710212316024      0.7265733171697364
4.05E9                   0.49086077866589656      0.6857927918406168
4.08E9                   0.5468806357839858       0.6401188437052946
4.11E9                   0.5987293941409311       0.5898978735640497
4.14E9                   0.6460413044088587       0.5355081608025102
4.17E9                   0.6884846544280514       0.4773570245648802
4.2E9                    0.7257640263143351       0.4158777960769442
4.23E9                   0.75762229079678         0.35152662234548304
4.26E9                   0.7838423268381605       0.2847791221843169
4.29E9                   0.8042484556059457       0.21612691676470883
4.32E9                   0.8187075795114634       0.14607405825647013
4.35E9                   0.8271300192524408       0.07513338111619149
4.38E9                   0.829470044178904        0.003822801011756306
4.41E9                   0.8257260934790858       -0.06733841387620414
4.44E9                   0.8159406873415986       -0.13783337478559313
4.47E9                   0.8002000285113162       -0.2071512834308812
4.5E9                    0.7786332958376854       -0.27479109778556254
4.53E9                   0.7514116328185022       -0.34026512789788266
4.56E9                   0.718746836086888        -0.40310253622648684
4.59E9                   0.6808897511682297       -0.46285271680170914
4.62E9                   0.6381283856041766       -0.519088527566406
4.65E9                   0.5907857523619343       -0.5714093510386519
4.68E9                   0.5392174593096852       -0.6194439595929673
4.71E9                   0.483809062821552        -0.6628531637149897
4.74E9                   0.42497320574878084      -0.7013322235302608
4.77E9                   0.36314656130584083      -0.7346130064152516
4.8E9                    0.29878660547242575      -0.7624658756631976
4.83E9                   0.23236824109919427      -0.784701297208832
4.86E9                   0.16438029750098374      -0.80117115307027
4.89E9                   0.09532192993187892      -0.8117697516806278
4.92E9                   0.025698944401889537     -0.816434526742399
4.95E9                   -0.04397992572092804     -0.8151464180576723
4.98E9                   -0.11320676373777037     -0.8079299299058569
5.01E9                   -0.1814782058356096      -0.7948528650480046
5.04E9                   -0.2482991405100103      -0.7760257352228818
5.07E9                   -0.31318634209313034     -0.7516008519291346
5.1E9                    -0.3756720095403866      -0.7217711043118311
5.13E9                   -0.43530718239498284     -0.6867684339857905
5.16E9                   -0.4916650070015283      -0.6468620195837907
5.19E9                   -0.544343827836624       -0.6023561864704027
5.22E9                   -0.5929700808763962      -0.5535880592922822
5.25E9                   -0.6372009682332174      -0.500924976604674
5.28E9                   -0.676726895284224       -0.4447616879163008
5.31E9                   -0.7112736531888137      -0.38551735426699796
5.34E9                   -0.740604330881245       -0.3236323744776124
5.37E9                   -0.7645209417480447      -0.259565060773915
5.4E9                    -0.7828657519030577      -0.19378818921500884
5.43E9                   -0.7955222991116245      -0.12678545254887416
5.46E9                   -0.8024160945028941      -0.059047844568776015
5.49E9                   -0.8035150025826896      0.008929993880946683
5.52E9                   -0.7988292986507904      0.07665343685178996
5.55E9                   -0.7884114062632102      0.1436315131803223
5.58E9                   -0.7723553206823847      0.20938049536853742
5.61E9                   -0.7507957272421045      0.2734274100378504
5.64E9                   -0.7239068259676609      0.33531344464001006
5.67E9                   -0.6919008754652863      0.39459722739512954
5.7E9                    -0.6550264698727061      0.4508579595999336
5.73E9                   -0.6135665628263354      0.5036983808264556
5.76E9                   -0.5678362525969073      0.5527475479077084
5.79E9                   -0.5181803436600964      0.5976634082018919
5.82E9                   -0.4649707024884635      0.6381351473437465
5.85E9                   -0.40860342886533724     0.6738852927765212
5.88E9                   -0.34949586741132        0.7046715571822797
5.91E9                   -0.2880834860746152      0.7302884101578289
5.94E9                   -0.22481664857894376     0.7505683708901687
5.97E9                   -0.1601573066360439      0.7653830181949769
6.0E9                    -0.09457563604567341     0.7746437165940818
