% Model:              three_layers reality at 0.1mm.mph
% Version:            COMSOL 5.6.0.280
% Date:               Feb 24 2022, 22:13
% Table:              表格 1 - 全局计算 1
% freq (Hz)              real(emw.S11) (1)        imag(emw.S11) (1)
300000000                0.5997599559011956       -0.7297093771783342
330000000                0.5339972067576737       -0.7784016734970388
360000000                0.4643927026712021       -0.821244830800862
390000000                0.3914539418919583       -0.8579329606252681
420000000                0.31571505613436096      -0.8882047934237479
450000000                0.2377322863289086       -0.9118458412463479
480000000                0.15807947590828722      -0.9286901701857316
510000000                0.07734354401443398      -0.9386217800936338
540000000                -0.0038800695380521335   -0.9415755882772571
570000000                -0.08499197968319781     -0.9375380145685679
600000000                -0.16539343404223603     -0.926547166084577
630000000                -0.24449086948804802     -0.9086926218187868
660000000                -0.3217004190273258      -0.8841148195468247
690000000                -0.3964523402700122      -0.853004049754643
720000000                -0.4681953335490201      -0.8155990642432471
750000000                -0.5364007185851899      -0.7721853097708051
780000000                -0.6005664386125072      -0.723092799801517
810000000                -0.6602208611255632      -0.6686936405178218
840000000                -0.7149263457945539      -0.6093992300094101
870000000                -0.7642825517427492      -0.5456571519805296
900000000                -0.8079294577401165      -0.477947788382708
930000000                -0.8455500712728923      -0.40678067751807423
960000000                -0.8768728050772158      -0.33269064608858134
990000000                -0.9016735017540735      -0.25623374639091223
1020000000               -0.9197770905914026      -0.1779830307480505
1050000000               -0.9310588634087156      -0.09852419713257737
1080000000               -0.9354453594693878      -0.01845114112352524
1110000000               -0.9329148529701629      0.06163855034222585
1140000000               -0.9234974397811174      0.14114812708268812
1170000000               -0.9072747236746301      0.2194861892049875
1200000000               -0.8843791055547622      0.2960711504197096
1230000000               -0.854992682646244       0.37033561513654
1260000000               -0.8193457677568958      0.44173063520854206
1290000000               -0.7777150419741963      0.5097298126697701
1320000000               -0.7304213570158047      0.5738332168338628
1350000000               -0.6778272064056123      0.6335710855317678
1380000000               -0.6203338870896605      0.6885072826327996
1410000000               -0.558378375516547       0.7382424860796065
1440000000               -0.49242994443268445     0.7824170830911807
1470000000               -0.4229865481587103      0.8207137520704549
1500000000               -0.35057100599913965     0.8528597132058446
1530000000               -0.27572701457283744     0.878628632775821
1560000000               -0.19901502072666874     0.8978421691127974
1590000000               -0.12100798757267253     0.9103711510586001
1620000000               -0.04228708639162875     0.9161363827798761
1650000000               0.0365626525459394       0.9151090717101704
1680000000               0.11495669738320019      0.9073108793070649
1710000000               0.19231534786433535      0.8928135971683405
1740000000               0.2680680126172195       0.8717384537262571
1770000000               0.34165739924728006      0.844255059434305
1800000000               0.4125435875078598       0.8105800008368474
1830000000               0.4802079568113422       0.770975096242651
1860000000               0.5441569406126252       0.7257453280542094
1890000000               0.6039255819842414       0.6752364687672512
1920000000               0.6590808662493441       0.6198324196125062
1950000000               0.7092248083420949       0.5599522825358615
1980000000               0.7539972743758888       0.4960471879130841
2010000000               0.7930785191138412       0.4285969015514943
2040000000               0.8261914227235696       0.35810623620662746
2070000000               0.8531034127250141       0.2851012934153912
2100000000               0.8736280588349218       0.21012556291137452
2130000000               0.8876263309116595       0.13373590716955117
2.16E9                   0.8950075122621443       0.05649845963695447
2.19E9                   0.8957297629849823       -0.021015534619420337
2.22E9                   0.8898003302732183       -0.09823390682187834
2.25E9                   0.8772754049176523       -0.1745877517490187
2.28E9                   0.8582596256027373       -0.24951558527059858
2.31E9                   0.8329052347802407       -0.3224674437389179
2.34E9                   0.8014108921600315       -0.39290889677871355
2.37E9                   0.7640201537577884       -0.46032494635900856
2.4E9                    0.7210196261611689       -0.524223785540961
2.43E9                   0.6727368069908884       -0.5841403911329429
2.46E9                   0.619537623390783        -0.6396399248525995
2.49E9                   0.5618236814428228       -0.6903209167420064
2.52E9                   0.5000292413434789       -0.7358182026663448
2.55E9                   0.43461793796130765      -0.7758055849988209
2.58E9                   0.36607927522552774      -0.8099981847706625
2.61E9                   0.2949249340856195       -0.8381544590470142
2.64E9                   0.22168494204639977      -0.8600778713730604
2.67E9                   0.1469037487116184       -0.8756182221934063
2.7E9                    0.07113623436965462      -0.8846726579872914
2.73E9                   -0.005056341624532124    -0.8871863721338716
2.76E9                   -0.08111045364073331     -0.883152991014092
2.79E9                   -0.15646447373347955     -0.8726146214219357
2.82E9                   -0.23056285678121508     -0.8556615328760165
2.85E9                   -0.30286030234353467     -0.8324314599442199
2.88E9                   -0.3728258458307185      -0.8031085251450396
2.91E9                   -0.43994683597360196     -0.7679217945574313
2.94E9                   -0.5037327629212637      -0.7271434838330859
2.97E9                   -0.5637189064607973      -0.6810868342844228
3.0E9                    -0.6194697776415188      -0.6301036791026375
3.03E9                   -0.6705823289201488      -0.5745817204954938
3.06E9                   -0.7166889094791644      -0.514941539715833
3.09E9                   -0.7574599439832217      -0.45163336348056293
3.12E9                   -0.7926063146965769      -0.38513361221101916
3.15E9                   -0.8218814290689873      -0.31594125731894396
3.18E9                   -0.8450829574165634      -0.2445740162292585
3.21E9                   -0.862054227817621       -0.17156441551149834
3.24E9                   -0.8726852683820875      -0.09745575328315755
3.27E9                   -0.8769134898807902      -0.022797993021429555
3.3E9                    -0.8747240048227737      0.05185637866840496
3.33E9                   -0.8661495820872407      0.12595649773837644
3.36E9                   -0.8512702392345535      0.1989572392635175
3.39E9                   -0.8302124776078019      0.27032327286889013
3.42E9                   -0.8031481682294568      0.33953302570451893
3.45E9                   -0.7702930992894457      0.4060825226729029
3.48E9                   -0.7319051986941579      0.46948907487011926
3.51E9                   -0.6882824476974133      0.5292947886639358
3.54E9                   -0.6397605039081985      0.5850698697006468
3.57E9                   -0.586710054261535       0.6364156978598273
3.6E9                    -0.5295339203142211      0.6829676515532049
3.63E9                   -0.46866394010023393     0.7243976618444612
3.66E9                   -0.40455765204839134     0.7604164794873499
3.69E9                   -0.33769480774979854     0.7907756403645189
3.72E9                   -0.26857374115664695     0.8152691174558492
3.75E9                   -0.19770762228725014     0.8337346500228648
3.78E9                   -0.12562062398640883     0.8460547430840402
3.81E9                   -0.05284403038220518     0.8521573326909077
3.84E9                   0.02008768435344699      0.8520161147893943
3.87E9                   0.09264077826104007      0.8456505376637818
3.9E9                    0.16428613625699084      0.8331254602492287
3.93E9                   0.23450310886850476      0.8145504809650332
3.96E9                   0.30278326695055036      0.7900789442514518
3.99E9                   0.3686340449416882       0.7599066346995532
4.02E9                   0.4315822464926662       0.7242701713738576
4.05E9                   0.4911773877446697       0.6834451176317907
4.08E9                   0.5469948559772221       0.6377438239263841
4.11E9                   0.5986388638405945       0.5875130226857371
4.14E9                   0.6457451819376214       0.5331311952032124
4.17E9                   0.6879836347543287       0.47500573060869145
4.2E9                    0.7250603463889616       0.4135698969533224
4.23E9                   0.7567197234813037       0.34927964458879207
4.26E9                   0.782746163401395        0.28261026283238955
4.29E9                   0.8029654768643848       0.21405291208300983
4.32E9                   0.8172460157438789       0.14411105497233465
4.35E9                   0.8254994990985612       0.07329681109800606
4.38E9                   0.8276815328074378       0.002127260317752432
4.41E9                   0.8237918203890324       -0.06887928071904904
4.44E9                   0.8138740642136248       -0.1392069843764055
4.47E9                   0.7980155576007342       -0.20834621613706972
4.5E9                    0.7763464694301988       -0.2757971927061518
4.53E9                   0.7490388243757042       -0.3410735692315352
4.56E9                   0.7163051837262174       -0.40370593042917036
4.59E9                   0.6783970342330581       -0.463245159751059
4.62E9                   0.6356028951478045       -0.5192656610865958
4.65E9                   0.5882461564835435       -0.571368408143999
4.68E9                   0.5366826642609386       -0.6191837980202157
4.71E9                   0.48129807101130684      -0.6623742872205094
4.74E9                   0.42250497168620155      -0.7006367906948006
4.77E9                   0.360739846635836        -0.7337048267311052
4.8E9                    0.29645983424556505      -0.7613503928055816
4.83E9                   0.23013935641540542      -0.7833855595075592
4.86E9                   0.16226662066113884      -0.7996637712870008
4.89E9                   0.09334002326024803      -0.8100808442896601
4.92E9                   0.02386447880350886      -0.8145756530312082
4.95E9                   -0.04565229732318628     -0.8131304994266995
4.98E9                   -0.11470352605570683     -0.8057711598670866
5.01E9                   -0.18278709287363332     -0.7925666085173723
5.04E9                   -0.24940923825353858     -0.7736284178112142
5.07E9                   -0.3140881812960181      -0.7491098400326721
5.1E9                    -0.376357647723061       -0.7192045769138321
5.13E9                   -0.43577027429868825     -0.684145247159516
5.16E9                   -0.4919008628059162      -0.6442015647890691
5.19E9                   -0.5443494585942582      -0.599678243782375
5.22E9                   -0.592744230728527       -0.5509126467603
5.25E9                   -0.6367441330752426      -0.4982721969739305
5.28E9                   -0.6760413276995383      -0.4421515739500982
5.31E9                   -0.7103633535750475      -0.38296971388846046
5.34E9                   -0.739475024750846       -0.3211666370095428
5.37E9                   -0.7631800433591265      -0.25720012546837007
5.4E9                    -0.7813223144084449      -0.191542277359821
5.43E9                   -0.7937869515877228      -0.12467596433669817
5.46E9                   -0.8005009663098872      -0.05709122196018394
5.49E9                   -0.8014336356443522      0.010718397148105852
5.52E9                   -0.7965965483656885      0.07825947698853769
5.55E9                   -0.7860433318786921      0.14504236878377283
5.58E9                   -0.7698690660634063      0.21058476967877052
5.61E9                   -0.7482093930485422      0.2744152221600577
5.64E9                   -0.7212393343146191      0.33607650908427866
5.67E9                   -0.689171828183305       0.3951289213568912
5.7E9                    -0.6522560014839901      0.451153377540785
5.73E9                   -0.6107751893752972      0.5037543759905088
5.76E9                   -0.5650447174393407      0.552562760532866
5.79E9                   -0.515409461375105       0.5972382801786542
5.82E9                   -0.4622412020874296      0.637471923211224
5.85E9                   -0.40593579747338887     0.672988007047654
5.88E9                   -0.34691019570715        0.7035460080523475
5.91E9                   -0.285599316665591       0.7289421198665611
5.94E9                   -0.22245282849129844     0.7490105331064695
5.97E9                   -0.15793184506495966     0.763624432886872
6.0E9                    -0.09250556832132305     0.7726967129936372
