% Model:              three_layers reality at 0.1mm.mph
% Version:            COMSOL 5.6.0.280
% Date:               Mar 10 2022, 21:35
% Table:              表格 1 - 全局计算 1
% freq (Hz)              real(emw.S11) (1)        imag(emw.S11) (1)
300000000                0.41226479162986784      -0.7909330125070516
330000000                0.32654611690391244      -0.826982807884234
360000000                0.2379263686674074       -0.8540113206509018
390000000                0.14731287726001163      -0.8717783293119464
420000000                0.05564183930856786      -0.8801379340514711
450000000                -0.03613438690701454     -0.8790415766533988
480000000                -0.1270593689654964      -0.8685394437737713
510000000                -0.21618420806971175     -0.8487804480682849
540000000                -0.3025787063578633      -0.8200109091845956
570000000                -0.38534207644032065     -0.7825720228813607
600000000                -0.4636131438083321      -0.736896192972969
630000000                -0.5365799748838083      -0.6835022973438094
660000000                -0.603488854513852       -0.6229899620822541
690000000                -0.6636525350136413      -0.5560329229709553
720000000                -0.7164576804314744      -0.48337156006890747
750000000                -0.7613714346893324      -0.405804698520515
780000000                -0.797947049705168       -0.3241807751788652
810000000                -0.8258285185839427      -0.23938847689244294
840000000                -0.8447541694158764      -0.15234696146382282
870000000                -0.8545591866306563      -0.06399577590581526
900000000                -0.8551770387752513      0.024715409956820703
930000000                -0.8466398043843164      0.11283713619021832
960000000                -0.8290774000783214      0.19943043267230645
990000000                -0.8027157278444785      0.2835769295320904
1020000000               -0.7678737708991619      0.3643886837546823
1050000000               -0.7249596793968077      0.4410176128880918
1080000000               -0.6744658988811219      0.5126644316316308
1110000000               -0.6169634046767931      0.5785869949739174
1140000000               -0.5530951152972633      0.6381079590470087
1170000000               -0.4835685664888576      0.6906216801835857
1200000000               -0.40914793504287605     0.735600282501984
1230000000               -0.33064550751404315     0.7725988350624582
1260000000               -0.2489126944525892      0.8012595903574318
1290000000               -0.16483069369827563     0.8213152477744465
1320000000               -0.07930090931296103     0.8325912168329039
1350000000               0.006764766788240096     0.8350068669266604
1380000000               0.09245370337083969      0.8285757616317405
1410000000               0.17686220311247905      0.8134048869227073
1440000000               0.25910499753525257      0.7896928934798085
1470000000               0.33832446448252934      0.7577273835887327
1500000000               0.41369947367262283      0.7178812828726366
1530000000               0.4844537713473903       0.6706083461435961
1560000000               0.5498638216019556       0.6164378549375281
1590000000               0.609266029027602        0.5559685717460829
1620000000               0.662063274956579        0.4898620226324637
1650000000               0.7077307079738887       0.41883518555184107
1680000000               0.745820737862945        0.34365266657785337
1710000000               0.7759671912192876       0.265118450126526
1740000000               0.7978885962135447       0.18406731215412356
1770000000               0.8113905733965258       0.1013559873723518
1800000000               0.8163673190486705       0.017854182474877373
1830000000               0.8128021771983281       -0.06556447255043565
1860000000               0.8007673061561331       -0.14803144411419641
1890000000               0.7804224550511777       -0.2286921969762939
1920000000               0.7520128753623947       -0.30671489359569826
1950000000               0.7158664016107015       -0.38129881112764935
1980000000               0.6723897438737474       -0.45168240387113284
2010000000               0.6220640416756414       -0.5171509491780288
2040000000               0.5654397330338785       -0.577043727755291
2070000000               0.5031307910869188       -0.6307607061328261
2100000000               0.4358083701514781       -0.6777687077875569
2130000000               0.3641938770395001       -0.717607076573591
2.16E9                   0.289051435867332        -0.7498928407553351
2.19E9                   0.2111796432593913       -0.7743253567132192
2.22E9                   0.1314024313324998       -0.7906903133919169
2.25E9                   0.05055882376486931      -0.7988627745895616
2.28E9                   -0.030508497181440754    -0.798808630075172
2.31E9                   -0.11096544526375372     -0.7905835520101822
2.34E9                   -0.18999844114998687     -0.7743286494380346
2.37E9                   -0.2668240346106762      -0.7502628925886912
2.4E9                    -0.3406943832035838      -0.718674002156186
2.43E9                   -0.41089836622470877     -0.679910833374981
2.46E9                   -0.47676061328299907     -0.6343798142206794
2.49E9                   -0.5376420498941047      -0.5825454922224208
2.52E9                   -0.5929443635513701      -0.5249326014838117
2.55E9                   -0.642118135645856       -0.462126423566966
2.58E9                   -0.6846725029101997      -0.3947696621344019
2.61E9                   -0.7201841021175599      -0.32355595782585345
2.64E9                   -0.748304035653564       -0.24922121482697648
2.67E9                   -0.7687626108840325      -0.17253396834800047
2.7E9                    -0.7813721555499283      -0.09428561071489715
2.73E9                   -0.7860283381694253      -0.015280867413652817
2.76E9                   -0.7827103421570707      0.063671354005811
2.79E9                   -0.7714801167177815      0.14176673619974195
2.82E9                   -0.7524808279055707      0.21821396711308869
2.85E9                   -0.7259345730045071      0.2922428075626392
2.88E9                   -0.692139392709243       0.3631117996592344
2.91E9                   -0.651465606539977       0.43011558511221193
2.94E9                   -0.6043514984852982      0.4925917893942782
2.97E9                   -0.5512983864165961      0.5499274204670399
3.0E9                    -0.4928651171526641      0.6015647284312694
3.03E9                   -0.42966203755517524     0.6470064738012336
3.06E9                   -0.3623444999518448      0.6858205560693466
3.09E9                   -0.2916059668786301      0.7176439604040639
3.12E9                   -0.21817078541857493     0.7421859878957427
3.15E9                   -0.14278670478317732     0.7592307434455055
3.18E9                   -0.06621721224791309     0.7686388643135684
3.21E9                   0.010766238181723155     0.7703484809434819
3.24E9                   0.08739203239497578      0.764375408939619
3.27E9                   0.1628961695673736       0.7508125763798088
3.3E9                    0.23652993712528883      0.729828693588152
3.33E9                   0.307567424039503        0.7016661733032512
3.36E9                   0.3753128083162997       0.666638308789297
3.39E9                   0.4391073504367537       0.62512571738614
3.42E9                   0.49833601655532966      0.5775720593550554
3.45E9                   0.5524336448775028       0.5244790488341003
3.48E9                   0.6008905576404424       0.4664007872540317
3.51E9                   0.643257512931037        0.4039374707656997
3.54E9                   0.6791498894103338       0.33772855149556424
3.57E9                   0.7082510071188839       0.2684454645806939
3.6E9                    0.7303145112225575       0.19678406339323073
3.63E9                   0.74516578181705         0.12345692719972126
3.66E9                   0.7527023766860875       0.049185713166404986
3.69E9                   0.7528935576704594       -0.02530628368581725
3.72E9                   0.7457789885429943       -0.09930121982687895
3.75E9                   0.7314667210136264       -0.17209332734016988
3.78E9                   0.710130607921472        -0.24299499072694358
3.81E9                   0.6820073010655371       -0.3113422329649538
3.84E9                   0.6473930017337772       -0.3764996183410991
3.87E9                   0.6066401231772045       -0.43786464306151096
3.9E9                    0.5601539822591344       -0.49487175060496347
3.93E9                   0.5083895580275314       -0.5469961538899132
3.96E9                   0.45184825178602106      -0.5937576458859561
3.99E9                   0.39107448727752914      -0.6347245219345821
4.02E9                   0.3266519353694058       -0.6695176317013871
4.05E9                   0.2591991567906437       -0.6978144574846067
4.08E9                   0.189364526939667        -0.7193530168753143
4.11E9                   0.11782041477474206      -0.7339353398870907
4.14E9                   0.045256699752532374     -0.741430282326319
4.17E9                   -0.02762620343882336     -0.7417754974366576
4.2E9                    -0.10012459990954153     -0.7349784736012878
4.23E9                   -0.17153883956205968     -0.7211166315541832
4.26E9                   -0.2411805396408731      -0.7003365394537874
4.29E9                   -0.30837958695077394     -0.672852337266444
4.32E9                   -0.37249085449424313     -0.6389434629548334
4.35E9                   -0.43290060304361017     -0.5989517512676148
4.38E9                   -0.4890325507618671      -0.5532779459155049
4.41E9                   -0.5403535857521792      -0.502377641636078
4.44E9                   -0.5863790764097255      -0.4467566629049392
4.47E9                   -0.6266777133395022      -0.3869658926347155
4.5E9                    -0.6608758025940157      -0.32359558343615663
4.53E9                   -0.6886609274379444      -0.2572692095790023
4.56E9                   -0.7097849053104048      -0.18863694367401584
4.59E9                   -0.7240659868199296      -0.1183688633118253
4.62E9                   -0.7313902718956053      -0.04714800532776045
4.65E9                   -0.7317123506023347      0.02433661445018545
4.68E9                   -0.7250552063954686      0.09539691229623509
4.71E9                   -0.7115094396743089      0.16535250183531822
4.74E9                   -0.6912318722786466      0.23353726959379872
4.77E9                   -0.6644435770980527      0.29930574409624666
4.8E9                    -0.6314273476369693      0.3620392513714948
4.83E9                   -0.5925245937013511      0.42115183636242143
4.86E9                   -0.5481316361373126      0.47609589781622924
4.89E9                   -0.4986953844614666      0.5263674469544968
4.92E9                   -0.44470841520578797     0.5715108728042998
4.95E9                   -0.3867035162557435      0.611123090847127
4.98E9                   -0.32524781042974527     0.6448569702119681
5.01E9                   -0.26093660787116696     0.672423975106667
5.04E9                   -0.19438715250567373     0.6935960110838079
5.07E9                   -0.12623241723319653     0.7082065256856889
5.1E9                    -0.05711506440543275     0.7161509628567627
5.13E9                   0.012318372101379005     0.7173866965764453
5.16E9                   0.081423094313341        0.7119325592487304
5.19E9                   0.14956149970767357      0.6998680324258912
5.22E9                   0.2161085675636697       0.6813320960092177
5.25E9                   0.2804572091422342       0.6565216675320333
5.28E9                   0.3420235452038462       0.6256895387212205
5.31E9                   0.400252000545709        0.5891417486685743
5.34E9                   0.4546200701699853       0.5472344084334899
5.37E9                   0.5046426348499289       0.5003700734092044
5.4E9                    0.5498757735212572       0.4489938075415574
5.43E9                   0.5899201021175744       0.39358907731708803
5.46E9                   0.6244237271227622       0.33467356080518296
5.49E9                   0.6530849172747151       0.2727948839778997
5.52E9                   0.6756545690644032       0.20852623180951457
5.55E9                   0.6919384858226931       0.142461744571051
5.58E9                   0.7017994252894983       0.07521160698282822
5.61E9                   0.7051588128059628       0.007396767015543516
5.64E9                   0.7019979785986546       -0.06035672469704202
5.67E9                   0.6923587675073108       -0.12742369374194387
5.7E9                    0.6763433956574268       -0.19318600553318183
5.73E9                   0.6541134927800574       -0.2570387252424291
5.76E9                   0.625888359007822        -0.3183960720384338
5.79E9                   0.5919425513642359       -0.37669700678963763
5.82E9                   0.5526029609169623       -0.4314103776125433
5.85E9                   0.5082455250776505       -0.4820396401016351
5.88E9                   0.4592916520679836       -0.5281272251978723
5.91E9                   0.4062043546116996       -0.5692586254047366
5.94E9                   0.3494840375983126       -0.6050662204118267
5.97E9                   0.2896638779722082       -0.6352327984814147
6.0E9                    0.22730476676201247      -0.65949468018521
