% Model:              three_layers reality at 0.1mm.mph
% Version:            COMSOL 5.6.0.280
% Date:               Mar 11 2022, 15:25
% Table:              表格 1 - 全局计算 1
% freq (Hz)              real(emw.S11) (1)        imag(emw.S11) (1)
300000000                0.5562616232105745       -0.7532151612841512
330000000                0.48475119133419753      -0.7992758960576463
360000000                0.40969143575436445      -0.8386671109008749
390000000                0.33158672475118345      -0.8711489735350302
420000000                0.25104544931723377      -0.8964829995283321
450000000                0.16870014388082455      -0.9144832821530609
480000000                0.0852017854152381       -0.9250195399980147
510000000                0.0012140167980032148    -0.9280193445522992
540000000                -0.08259268147248822     -0.9234696277328832
570000000                -0.16554684669364603     -0.9114175265055989
600000000                -0.2469818868520015      -0.8919705994947427
630000000                -0.32624189359641875     -0.8652964389708298
660000000                -0.40268737464158244     -0.8316216956024436
690000000                -0.47570085984713106     -0.7912305317383335
720000000                -0.5446923346246806      -0.744462519979307
750000000                -0.6091044501438496      -0.6917100069047761
780000000                -0.6684174617688798      -0.6334149654326144
810000000                -0.7221538467874293      -0.5700653638204835
840000000                -0.7698825540139395      -0.5021910843904384
870000000                -0.8112228404324129      -0.4303594307681792
900000000                -0.8458476542196665      -0.3551702658069811
930000000                -0.8734865265921258      -0.2772508291949673
960000000                -0.8939279411024622      -0.19725028584506357
990000000                -0.9070211541369626      -0.11583406126298555
1020000000               -0.9126774466695944      -0.03367802237722095
1050000000               -0.9108707942348231      0.048537435632315565
1080000000               -0.9016379489214652      0.13013333488054907
1110000000               -0.8850779342945142      0.21043802994147362
1140000000               -0.8613509612783807      0.28879303222472946
1170000000               -0.8306767800798671      0.36455868253213153
1200000000               -0.7933324897279693      0.4371196152651484
1230000000               -0.7496498333371137      0.5058899594825774
1260000000               -0.7000120126142436      0.5703182272400243
1290000000               -0.6448500603873291      0.6298918434166796
1320000000               -0.5846388143498896      0.6841412769584022
1350000000               -0.51989253884372        0.7326437388783369
1380000000               -0.4511602438755096      0.7750264186790359
1410000000               -0.37902075325481044     0.8109692363845602
1440000000               -0.3040775743080298      0.8402070940235845
1470000000               -0.2269536219601177      0.8625316164123538
1500000000               -0.14828585024733343     0.877792376674244
1530000000               -0.06871984213909191     0.8858976079899006
1560000000               0.011095592055788119     0.8868144080018517
1590000000               0.09051376045898306      0.8805684472742537
1620000000               0.16889533475816912      0.8672431975026491
1650000000               0.24561345269116241      0.8469786989843003
1680000000               0.32005863980897475      0.8199698901589203
1710000000               0.3916435151019215       0.7864645248344785
1740000000               0.4598072496528481       0.7467607047408634
1770000000               0.5240197499548075       0.7012040571265914
1800000000               0.5837855420838779       0.6501845880410055
1830000000               0.6386473357539096       0.5941332429822781
1860000000               0.6881892507381342       0.5335182070313246
1890000000               0.7320396911893937       0.4688409768038231
1920000000               0.7698738563815954       0.4006322363530946
1950000000               0.8014158789325538       0.32944756895172356
1980000000               0.8264405840276485       0.25586303629453083
2010000000               0.844774865493649        0.18047065587290145
2040000000               0.8562986764551141       0.10387380703804605
2070000000               0.8609456343502565       0.026682595121280517
2100000000               0.8587032416624052       -0.05049079697646173
2130000000               0.8496127255417409       -0.12703674187227232
2.16E9                   0.8337685009420981       -0.2023527574606101
2.19E9                   0.8113172635712819       -0.275848026511791
2.22E9                   0.7824567203377477       -0.3469478203034404
2.25E9                   0.7474339665188954       -0.41509780102848143
2.28E9                   0.7065435201310944       -0.47976817932238786
2.31E9                   0.660125024463003        -0.5404577054096726
2.34E9                   0.6085606299315945       -0.5966974735126936
2.37E9                   0.552272064491035        -0.6480545216979037
2.4E9                    0.4917173978016887       -0.694135209931922
2.43E9                   0.4273874981434107       -0.7345883561659727
2.46E9                   0.35980217347067767      -0.7691081010748952
2.49E9                   0.2895059843059922       -0.797436452254467
2.52E9                   0.2170637282973564       -0.8193654278358182
2.55E9                   0.14305563513431194      -0.8347386897392485
2.58E9                   0.06807238490077694      -0.8434525537630834
2.61E9                   -0.007289853861290042    -0.845456324803604
2.64E9                   -0.08243414053989398     -0.8407520393963367
2.67E9                   -0.15676709692564883     -0.8293938436384519
2.7E9                    -0.22970292018308147     -0.8114872760928606
2.73E9                   -0.3006673131475118      -0.7871885943963474
2.76E9                   -0.3691015883239384      -0.7567040580190313
2.79E9                   -0.43446704993977686     -0.720288923519355
2.82E9                   -0.49624956146586685     -0.6782459164734642
2.85E9                   -0.5539640958073706      -0.6309230681611291
2.88E9                   -0.6071590690363187      -0.578710936612664
2.91E9                   -0.6554203239068795      -0.5220393050965078
2.94E9                   -0.6983746976451611      -0.4613734645796381
2.97E9                   -0.7356931511667318      -0.39721016946254706
3.0E9                    -0.767093454452332       -0.3300733334576304
3.03E9                   -0.7923424262816473      -0.260509515748432
3.06E9                   -0.8112577241416548      -0.18908323988188253
3.09E9                   -0.8237091781991643      -0.11637218527084026
3.12E9                   -0.8296196629437511      -0.04296229204894626
3.15E9                   -0.8289655018859176      0.03055717810271269
3.18E9                   -0.8217764041390411      0.10359858107323275
3.21E9                   -0.8081349360567623      0.17558078439045938
3.24E9                   -0.7881755358673076      0.24593397128022598
3.27E9                   -0.7620830841686858      0.31410431063640387
3.3E9                    -0.7300910477726276      0.3795584507392791
3.33E9                   -0.6924792187672393      0.44178779661833006
3.36E9                   -0.6495710745696811      0.5003125339913999
3.39E9                   -0.6017307882542356      0.5546853658431011
3.42E9                   -0.5493599214732147      0.6044949312592088
3.45E9                   -0.4928938350277925      0.6493688798139247
3.48E9                   -0.432797854264348       0.6889765789474067
3.51E9                   -0.3695632282319042      0.7230314359338696
3.54E9                   -0.30370292303863816     0.7512928202703141
3.57E9                   -0.23574729021121377     0.7735675771432993
3.6E9                    -0.16623965162257673     0.7897111268667919
3.63E9                   -0.09573184136867835     0.799628150193549
3.66E9                   -0.024779744613150356    0.8032728634979247
3.69E9                   0.04606112934563189      0.8006488922410514
3.72E9                   0.11624000450590036      0.7918087543534753
3.75E9                   0.1852150941290759       0.7768529677935364
3.78E9                   0.2524577259584046       0.7559287980270611
3.81E9                   0.31745630988730067      0.7292286618493803
3.84E9                   0.37972012238350195      0.6969882042760768
3.87E9                   0.4387828825150777       0.6594840657834067
3.9E9                    0.4942060937544064       0.6170313587153807
3.93E9                   0.54558212527763         0.5699808746674687
3.96E9                   0.5925370066176067       0.5187160493856099
3.99E9                   0.6347329120448567       0.46364971744658673
4.02E9                   0.6718703159343733       0.4052206951951597
4.05E9                   0.7036898090968976       0.34389023435229205
4.08E9                   0.7299735762413683       0.2801383896788658
4.11E9                   0.750546545484911        0.21446033944202975
4.14E9                   0.7652772279917223       0.147362688719993
4.17E9                   0.7740782676425845       0.07935977441223291
4.2E9                    0.776906716302526        0.010969981460913993
4.23E9                   0.7737640422643193       -0.057287924363534276
4.26E9                   0.7646958719335001       -0.1248984402024225
4.29E9                   0.7497914613287417       -0.191352933550753
4.32E9                   0.7291828957577793       -0.25615319504683076
4.35E9                   0.7030440209845132       -0.31881491598925993
4.38E9                   0.6715891137115048       -0.3788710721104751
4.41E9                   0.6350713002677217       -0.4358751996310959
4.44E9                   0.5937807295604935       -0.4894045528397932
4.47E9                   0.5480425014678932       -0.539063132278271
4.5E9                    0.4982143480584686       -0.5844845681291071
4.53E9                   0.4446840650191883       -0.6253348362899122
4.56E9                   0.38786669472925656      -0.66131477800283
4.59E9                   0.32820147025712765      -0.6921623894202118
4.62E9                   0.2661485387610723       -0.7176548470471765
4.65E9                   0.2021854915917315       -0.7376102383171328
4.68E9                   0.13680373532540352      -0.7518889729288686
4.71E9                   0.07050474171778287      -0.7603948588741446
4.74E9                   0.0037962149639524157    -0.763075835648649
4.77E9                   -0.0628117882788418      -0.7599243643778743
4.8E9                    -0.12881075566802416     -0.7509774790046315
4.83E9                   -0.19369760738426312     -0.7363165036123909
4.86E9                   -0.2569785537172923      -0.7160664391446455
4.89E9                   -0.31817290041283447     -0.6903950197997755
4.92E9                   -0.37681677726792095     -0.6595114374213121
4.95E9                   -0.43246676132969014     -0.6236647326386904
4.98E9                   -0.4847033616275755      -0.5831418546919863
5.01E9                   -0.5331343294284373      -0.5382653972180265
5.04E9                   -0.5773977569023635      -0.48939102375031923
5.07E9                   -0.6171649281127802      -0.4369046034498252
5.1E9                    -0.6521428888905507      -0.3812190842430707
5.13E9                   -0.6820767069401754      -0.3227711364229349
5.16E9                   -0.7067513999218008      -0.2620176044220651
5.19E9                   -0.7259935173130893      -0.1994318065949323
5.22E9                   -0.7396723698650989      -0.13549972176202735
5.25E9                   -0.7477009066324597      -0.07071609691186458
5.28E9                   -0.7500362417973729      -0.005580504485863236
5.31E9                   -0.74667983149073        0.05940662676072013
5.34E9                   -0.7376772964943372      0.12374798393210401
5.37E9                   -0.7231178833852332      0.18695331730820527
5.4E9                    -0.7031335575643148      0.2485433277260305
5.43E9                   -0.6778977273796413      0.3080534522381115
5.46E9                   -0.6476236079490548      0.3650375024527518
5.49E9                   -0.6125622438848156      0.41907111065442
5.52E9                   -0.5730002197077207      0.46975494345598046
5.55E9                   -0.5292570943675639      0.5167176498196807
5.58E9                   -0.4816826010702846      0.5596185198367576
5.61E9                   -0.43065365532188093     0.5981498409939764
5.64E9                   -0.37657121175288977     0.6320389493510046
5.67E9                   -0.31985700333014544     0.6610499818574489
5.7E9                    -0.2609501860281518      0.684985339968394
5.73E9                   -0.2003039012002689      0.7036868713990168
5.76E9                   -0.1383817620285841      0.7170367667287016
5.79E9                   -0.07565427424861326     0.724958155174598
5.82E9                   -0.012595214330942284    0.7274153770462022
5.85E9                   0.05032199515808636      0.7244139146543355
5.88E9                   0.1126278625035294       0.7159999786769626
5.91E9                   0.17386030610780878      0.702259766263418
5.94E9                   0.23356799736467926      0.6833184221191795
5.97E9                   0.2913135446748864       0.659338739344636
6.0E9                    0.34667651036049957      0.6305196332749915
