% Model:              three_layers reality at 0.1mm.mph
% Version:            COMSOL 5.6.0.280
% Date:               Mar 8 2022, 20:20
% Table:              表格 1 - 全局计算 1
% freq (Hz)              real(emw.S11) (1)        imag(emw.S11) (1)
300000000                0.6196359117321522       -0.748342784507213
330000000                0.552176305183304        -0.7989774098886063
360000000                0.48068076942562377      -0.8435863155237879
390000000                0.40569454665395277      -0.881850643957743
420000000                0.3277645277401206       -0.9134989795199187
450000000                0.24746532527120133      -0.9383069870464159
480000000                0.16538982929640478      -0.956099723117794
510000000                0.08214467351788386      -0.9667532481128188
540000000                -0.0016543300818812057   -0.9701958425375804
570000000                -0.08538683280919575     -0.9664087780321755
600000000                -0.16843263252482094     -0.9554266491728995
630000000                -0.25017636250580405     -0.9373372720791674
660000000                -0.330012149663994       -0.9122811556753709
690000000                -0.4073482067299349      -0.8804505537158198
720000000                -0.4816113226519698      -0.8420881069622532
750000000                -0.5522512160782692      -0.7974850878168156
780000000                -0.6187447186805817      -0.7469792616794412
810000000                -0.6805997545104104      -0.6909523822879534
840000000                -0.7373590836956865      -0.6298273411833217
870000000                -0.7886037817255076      -0.564064992995573
900000000                -0.8339564246489659      -0.494160682978765
930000000                -0.8730839561287651      -0.4206405027622678
960000000                -0.9057002122039566      -0.3440573052424351
990000000                -0.931568083676193       -0.2649865097065764
1020000000               -0.950501298564563       -0.18402173124656224
1050000000               -0.9623658104795019      -0.10177026884162993
1080000000               -0.967080781598233       -0.018848488973192593
1110000000               -0.964619152848324       0.06412285825852902
1140000000               -0.9550077971029618      0.1465233534186329
1170000000               -0.9383272546613161      0.22773761395757638
1200000000               -0.9147110540624848      0.3071599548551168
1230000000               -0.8843446245047222      0.38419896690397276
1260000000               -0.8474638096651219      0.4582819761760732
1290000000               -0.8043529961738195      0.5288593489940759
1320000000               -0.7553428727354903      0.5954086098139305
1350000000               -0.7008078393148608      0.6574383392913226
1380000000               -0.6411630883327246      0.7144918230482719
1410000000               -0.5768613822125206      0.7661504238784924
1440000000               -0.5083895544727349      0.8120366517701314
1470000000               -0.43626476278572035     0.8518169100463944
1500000000               -0.36103052455684514     0.8852038979173069
1530000000               -0.28325256732280285     0.911958652720783
1560000000               -0.20351452685538762     0.931892218628037
1590000000               -0.1224135266872498      0.9448669314644786
1620000000               -0.040555673861539535    0.9507973121704372
1650000000               0.04144849462507594      0.949650564945234
1680000000               0.12298857979373459      0.9414466788920866
1710000000               0.20345886913316014      0.9262581352032067
1740000000               0.2822628313887545       0.9042092246947435
1770000000               0.3588175246626946       0.8754749834990598
1800000000               0.43255788654404115      0.8402797571655634
1830000000               0.5029408747192224       0.7988954063993102
1860000000               0.5694494294804336       0.7516391696032694
1890000000               0.6315962301643883       0.6988712000803374
1920000000               0.688927219630688        0.6409917975962133
1950000000               0.7410248730514475       0.5784383558580658
1980000000               0.787511188498942        0.5116820496769919
2010000000               0.8280503800051808       0.4412242863154154
2040000000               0.862351254876608        0.36759294793480624
2070000000               0.8901692602359845       0.2913384521738979
2100000000               0.9113081853181463       0.21302966002489124
2130000000               0.925621509132953        0.13324965988201073
2.16E9                   0.9330133849405371       0.0525914582292607
2.19E9                   0.9334392558068402       -0.028346392483729665
2.22E9                   0.9269060979096274       -0.10896419815700625
2.25E9                   0.9134722907073041       -0.18866552854197338
2.28E9                   0.8932471155753774       -0.2668615930672777
2.31E9                   0.8663898870711257       -0.3429755567473501
2.34E9                   0.8331087231468133       -0.4164467664430843
2.37E9                   0.7936589629208183       -0.48673485860181426
2.4E9                    0.748341242335508        -0.5533237206629013
2.43E9                   0.697499239353327        -0.6157252793363998
2.46E9                   0.6415171011957356       -0.6734830894205661
2.49E9                   0.5808165667204322       -0.7261756963214623
2.52E9                   0.5158537987263943       -0.7734197430445877
2.55E9                   0.44711594495762325      -0.814872789428081
2.58E9                   0.3751174559838173       -0.8502358088430579
2.61E9                   0.3003962007071051       -0.8792553320464261
2.64E9                   0.22350943093126008      -0.9017252219373181
2.67E9                   0.14502964553211797      -0.9174880841679347
2.7E9                    0.06554038752648132      -0.9264363343183313
2.73E9                   -0.014368015936635815    -0.9285129397905294
2.76E9                   -0.09410277310303866     -0.9237118348240128
2.79E9                   -0.17307299977036533     -0.912077986268567
2.82E9                   -0.2506941176903714      -0.8937070818209927
2.85E9                   -0.32639223479960217     -0.8687448221944285
2.88E9                   -0.39960845800305567     -0.8373858147508397
2.91E9                   -0.469803092470396       -0.799872079096821
2.94E9                   -0.5364596885079744      -0.7564911821943995
2.97E9                   -0.5990889030651202      -0.7075740231778916
3.0E9                    -0.657232146884613       -0.6534922889558351
3.03E9                   -0.7104649909307323      -0.5946556022182553
3.06E9                   -0.7584003071341114      -0.531508384763383
3.09E9                   -0.8006911201836872      -0.4645264607716435
3.12E9                   -0.8370331491909092      -0.39421342605225806
3.15E9                   -0.8671670196365868      -0.321096811959029
3.18E9                   -0.8908801291869081      -0.24572407343638997
3.21E9                   -0.9080081530050143      -0.16865843314038892
3.24E9                   -0.9184361776462195      -0.09047461398990511
3.27E9                   -0.9220994553051901      -0.011754494162540745
3.3E9                    -0.9189837736188544      0.0669172817586017
3.33E9                   -0.9091254391714142      0.14495770033090472
3.36E9                   -0.892610876204082       0.2217897518354465
3.39E9                   -0.8695758450468495      0.2968467431595876
3.42E9                   -0.8402042879782461      0.3695765179063645
3.45E9                   -0.8047268130972404      0.4394455512829303
3.48E9                   -0.7634188298159187      0.5059428882496352
3.51E9                   -0.7165983521279478      0.5685838955124817
3.54E9                   -0.66462348869952        0.626913798856389
3.57E9                   -0.6078896407976533      0.6805109802093753
3.6E9                    -0.5468264316902202      0.7289900101805347
3.63E9                   -0.481894392795554       0.7720043947075854
3.66E9                   -0.41358143357222743     0.8092490168931872
3.69E9                   -0.34239912374847814     0.8404622575758941
3.72E9                   -0.2688788170287749      0.865427781329656
3.75E9                   -0.19356764679714988     0.8839759768840967
3.78E9                   -0.11702442414629194     0.8959850440271744
3.81E9                   -0.03981546938407519     0.9013817213392278
3.84E9                   0.03748959215060826      0.900141651805507
3.87E9                   0.11432203872572817      0.8922893856643411
3.9E9                    0.1901182344150513       0.8778980223954943
3.93E9                   0.26432375374578554      0.8570884962907259
3.96E9                   0.33639741818938307      0.830028512829424
3.99E9                   0.4058152142209407       0.7969311461036251
4.02E9                   0.4720740641036576       0.7580531105447744
4.05E9                   0.5346954218961527       0.7136927233458675
4.08E9                   0.5932286698256881       0.6641875765411112
4.11E9                   0.6472542929512248       0.6099119397099932
4.14E9                   0.6963868129295918       0.5512739153652222
4.17E9                   0.7402774644068224       0.48871236930187
4.2E9                    0.7786165992347525       0.4226936582776955
4.23E9                   0.8111358050576172       0.35370817729238774
4.26E9                   0.8376097255307529       0.2822667495662905
4.29E9                   0.8578575706140055       0.20889688354258898
4.32E9                   0.8717443071857613       0.13413892256363721
4.35E9                   0.8791815225452688       0.05854211425111473
4.38E9                   0.8801279561521014       -0.017339373210435962
4.41E9                   0.8745896973731476       -0.09295046084719616
4.44E9                   0.8626200488951086       -0.1677391681596963
4.47E9                   0.8443190569246859       -0.24116059580801064
4.5E9                    0.8198327104540302       -0.31268085573562354
4.53E9                   0.7893518134030533       -0.3817809219718789
4.56E9                   0.753110535264786        -0.44796037536268163
4.59E9                   0.7113846485646917       -0.5107410143619279
4.62E9                   0.6644894641101602       -0.5696703049127338
4.65E9                   0.6127774783064311       -0.6243246424868801
4.68E9                   0.5566357496150435       -0.6743124012527065
4.71E9                   0.4964830240483636       -0.7192767469756266
4.74E9                   0.4327666317302248       -0.7588981928328602
4.77E9                   0.3659591780338133       -0.7928968799786088
4.8E9                    0.29655505405201804      -0.8210345670164969
4.83E9                   0.22506679140109098      -0.8431163150917937
4.86E9                   0.152021287155519        -0.8589918568982888
4.89E9                   0.0779559250534474       -0.8685566396859095
4.92E9                   0.003414619984738998     -0.8717525338537689
4.95E9                   -0.07105618597884149     -0.8685682004516849
4.98E9                   -0.14491154686990626     -0.8590391131778037
5.01E9                   -0.21761202523366052     -0.8432472329631914
5.04E9                   -0.2886276628036077      -0.8213203361502587
5.07E9                   -0.3574418787386331      -0.793431000295018
5.1E9                    -0.4235552643253761      -0.7597952548803915
5.13E9                   -0.48648924453957315     -0.7206709073365065
5.16E9                   -0.5457895774032224      -0.6763555580198914
5.19E9                   -0.60102966431942        -0.6271843206352825
5.22E9                   -0.6518136466388639      -0.5735272670182562
5.25E9                   -0.6977792662730486      -0.5157866168700027
5.28E9                   -0.7386004702479353      -0.4543936942554305
5.31E9                   -0.7739897410697082      -0.38980567330072086
5.34E9                   -0.8037001358364487      -0.3225021365733842
5.37E9                   -0.8275270181798761      -0.25298147118921405
5.4E9                    -0.8453094686861468      -0.18175712956330603
5.43E9                   -0.8569313616264005      -0.10935378406186017
5.46E9                   -0.8623220988951685      -0.036303406740985415
5.49E9                   -0.861456995716403       0.036858693558760314
5.52E9                   -0.8543573164717307      0.10959784370241724
5.55E9                   -0.8410899629155797      0.18138395586316491
5.58E9                   -0.8217668206972877      0.2516954224130115
5.61E9                   -0.7965437734529331      0.32002292612369815
5.64E9                   -0.7656193965458367      0.3858731376532656
5.67E9                   -0.7292333444222795      0.44877227511615864
5.7E9                    -0.6876644465364523      0.5082695026503611
5.73E9                   -0.6412285269104301      0.5639401467460698
5.76E9                   -0.590275962494962       0.6153887094332466
5.79E9                   -0.535188996560061       0.6622516568743282
5.82E9                   -0.47637882597373704     0.7041999614184498
5.85E9                   -0.4142824852369616      0.7409413759200916
5.88E9                   -0.34935955412004066     0.7722224220789479
5.91E9                   -0.28208871830769455     0.797830079149632
5.94E9                   -0.21296421323377343     0.8175931642431311
5.97E9                   -0.1424921799741007      0.8313833997997675
6.0E9                    -0.07118696043721932     0.8391161664960308
