% Model:              three_layers reality at 0.1mm.mph
% Version:            COMSOL 5.6.0.280
% Date:               Feb 23 2022, 09:41
% Table:              表格 1 - 全局计算 1
% freq (Hz)              real(emw.S11) (1)        imag(emw.S11) (1)
300000000                0.5616864899288178       -0.7618722402771309
330000000                0.48894755995119915      -0.8091139282413075
360000000                0.4123928382281701       -0.8495056398244745
390000000                0.33264288619176857      -0.8827446512820121
420000000                0.2503456669378126       -0.9085817190878084
450000000                0.16617149317299057      -0.9268243990719798
480000000                0.08080764943367438      -0.9373396944768745
510000000                -0.005047236670437627    -0.9400560522677103
540000000                -0.09068901154155534     -0.9349647209985467
570000000                -0.17541393675739397     -0.922120478059998
600000000                -0.25852469704805614     -0.9016417321263703
630000000                -0.3393364132984263      -0.8737100064497514
660000000                -0.4171826030870518      -0.8385688102373451
690000000                -0.4914210283427963      -0.7965219084254213
720000000                -0.5614393706366596      -0.7479310044366713
750000000                -0.6266606760037622      -0.6932128548435726
780000000                -0.6865485107401968      -0.632835841095454
810000000                -0.7406117725525224      -0.5673160288413468
840000000                -0.7884091043235381      -0.4972127511155964
870000000                -0.8295528605020508      -0.4231237580451417
900000000                -0.8637125813258062      -0.34567998074263473
930000000                -0.8906179349770951      -0.2655399625120386
960000000                -0.9100610937752265      -0.18338401494386894
990000000                -0.9218985173227177      -0.09990815992853624
1020000000               -0.9260521223056405      -0.01581792256213403
1050000000               -0.9225098266937777      0.0681779595871848
1080000000               -0.9113254634675514      0.1513738427641995
1110000000               -0.8926180671139088      0.23307343210597567
1140000000               -0.8665705439240065      0.31259591854969365
1170000000               -0.8334277446516192      0.3892819341730071
1200000000               -0.7934939654016153      0.4624992639723018
1230000000               -0.7471299093036171      0.5316482571606809
1260000000               -0.6947491474432991      0.596166885466307
1290000000               -0.6368141230936851      0.6555354009999906
1320000000               -0.5738317475392891      0.7092805526219887
1350000000               -0.5063486395404263      0.7569793258870426
1380000000               -0.4349460629991521      0.7982621784167588
1410000000               -0.36023461947910085     0.8328157490344634
1440000000               -0.28284875265854126     0.8603850261827874
1470000000               -0.20344112216499        0.8807749673676958
1500000000               -0.12267690317011369     0.8938515679678238
1530000000               -0.04122806675811113     0.8995423836263486
1560000000               0.04023230633522275      0.8978365160663473
1590000000               0.12103562836487179      0.8887840771472
1620000000               0.20052327721534946      0.8724951505457798
1650000000               0.2780518953495898       0.8491382742484371
1680000000               0.3529984759672363       0.8189384704124647
1710000000               0.42476520063624384      0.7821748518198031
1740000000               0.4927839969074366       0.7391778363315633
1770000000               0.5565207884056015       0.6903260023393853
1800000000               0.6154794137362217       0.63604261931838
1830000000               0.6692051942011897       0.5767918884537048
1860000000               0.717288134353645        0.5130749282990659
1890000000               0.7593657422906311       0.4454255409012549
1920000000               0.7951254604656466       0.37440579310258887
1950000000               0.824306700619723        0.3006014475090848
1980000000               0.8467024798080285       0.22461727656914654
2010000000               0.862160657501627        0.14707229208388423
2040000000               0.8705847769868079       0.06859492053965625
2070000000               0.871934517292964        -0.010181848284338553
2100000000               0.8662257643587463       -0.0886253163579381
2130000000               0.8535303110209317       -0.16610791974143685
2.16E9                   0.8339751923142273       -0.24201205113174692
2.19E9                   0.8077416519326835       -0.31573486552482444
2.22E9                   0.7750637128763689       -0.3866930778547601
2.25E9                   0.7362262884566267       -0.4543277508805635
2.28E9                   0.6915627294671527       -0.5181090243773002
2.31E9                   0.6414516938259021       -0.5775406396636602
2.34E9                   0.5863133068930783       -0.6321639873220076
2.37E9                   0.5266047913748547       -0.6815613488216226
2.4E9                    0.46281600897041797      -0.7253581513566831
2.43E9                   0.3954654408391107       -0.7632244371005493
2.46E9                   0.3250968482922485       -0.7948761197311267
2.49E9                   0.25227633419784484      -0.8200766072269842
2.52E9                   0.17758919763486214      -0.8386389512617403
2.55E9                   0.10163609662450988      -0.8504281988948214
2.58E9                   0.02502842813524424      -0.8553634407890787
2.61E9                   -0.05161684820936774     -0.853419193747533
2.64E9                   -0.12768262913040634     -0.8446260013938485
2.67E9                   -0.20255708899871952     -0.8290703052592312
2.7E9                    -0.27563897221641226     -0.8068936939382602
2.73E9                   -0.3463427017799714      -0.7782916255260973
2.76E9                   -0.41410328371516014     -0.7435116867104645
2.79E9                   -0.47838099451349514     -0.7028514256006401
2.82E9                   -0.5386658344392213      -0.6566557806638416
2.85E9                   -0.5944817225558032      -0.605314123139304
2.88E9                   -0.6453904042295325      -0.5492569309288352
2.91E9                   -0.6909950387542987      -0.48895211576541747
2.94E9                   -0.7309434342641286      -0.42490103018475217
2.97E9                   -0.7649308981573268      -0.35763418600110586
3.0E9                    -0.7927026740591661      -0.28770672050530316
3.03E9                   -0.8140559398387519      -0.21569365092341203
3.06E9                   -0.8288413457364494      -0.1421849611761148
3.09E9                   -0.8369640767461126      -0.06778056761072536
3.12E9                   -0.8383844288689579      0.006914787596107613
3.15E9                   -0.8331178946763629      0.08129666569947626
3.18E9                   -0.821234759447974       0.15476603368653952
3.21E9                   -0.8028592148168011      0.2267342907564257
3.24E9                   -0.7781680020914408      0.29662817204459396
3.27E9                   -0.7473886020701639      0.36389448482525
3.3E9                    -0.7107969920158834      0.4280046354705526
3.33E9                   -0.6687149936095618      0.48845890811977716
3.36E9                   -0.6215072383058944      0.5447904586671725
3.39E9                   -0.5695777787648718      0.5965689899322886
3.42E9                   -0.5133663774454069      0.6434040755419216
3.45E9                   -0.45334450639980384     0.6849481014474168
3.48E9                   -0.39001109617138446     0.7208987954485969
3.51E9                   -0.323888076620495       0.7510013173090553
3.54E9                   -0.25551575853277003     0.7750498857299113
3.57E9                   -0.18544811075468726     0.7928889246519537
3.6E9                    -0.11424799290471484     0.804413720072179
3.63E9                   -0.04248240611835766     0.8095705897732239
3.66E9                   0.029282176633834745     0.8083565805126632
3.69E9                   0.10048434371640572      0.8008187186926193
3.72E9                   0.17057209212164307      0.7870528500282428
3.75E9                   0.23900694846488088      0.767202110762714
3.78E9                   0.305267833062949        0.7414550782215856
3.81E9                   0.3688546476481701       0.7100436523472864
3.84E9                   0.42929158069398565      0.6732407213411765
3.87E9                   0.4861301400492655       0.6313576612169481
3.9E9                    0.5389519375549071       0.5847417082916656
3.93E9                   0.5873712600078104       0.533773225054296
3.96E9                   0.6310374596040582       0.4788628573964405
3.99E9                   0.6696371837690691       0.420448561481504
4.02E9                   0.7028964418055712       0.3589924689067739
4.05E9                   0.7305824814794509       0.2949775627683232
4.08E9                   0.7525054303829901       0.22890415340009682
4.11E9                   0.7685196497607674       0.16128616549880856
4.14E9                   0.7785247537821679       0.09264727057092517
4.17E9                   0.7824662616711351       0.023516914785573165
4.2E9                    0.7803358690269268       -0.04557370092118203
4.23E9                   0.7721713427179371       -0.11409563411614021
4.26E9                   0.7580560568752365       -0.1815261625853468
4.29E9                   0.7381181937795873       -0.24735266183754373
4.32E9                   0.7125296327920503       -0.3110763775919534
4.35E9                   0.6815045450617817       -0.37221608007944984
4.38E9                   0.6452977045654656       -0.4303115894397251
4.41E9                   0.6042025202349302       -0.48492715918383666
4.44E9                   0.5585487913964162       -0.5356546995387209
4.47E9                   0.508700190154454        -0.5821168166959407
4.5E9                    0.4550514787345886       -0.6239696397636119
4.53E9                   0.3980254762899252       -0.6609054051173987
4.56E9                   0.3380697965562293       -0.6926547687383945
4.59E9                   0.27565338436577685      -0.7189888204311878
4.62E9                   0.21126288392612996      -0.7397207796665457
4.65E9                   0.1453988744202439       -0.7547073600555723
4.68E9                   0.07857200753939804      -0.7638497972398247
4.71E9                   0.01129907724939443      -0.7670945409305647
4.74E9                   -0.05590095415658283     -0.7644336140821645
4.77E9                   -0.1225109555590004      -0.755904639679492
4.8E9                    -0.18801963565702062     -0.7415905294417522
4.83E9                   -0.2519255406186199      -0.7216188219917321
4.86E9                   -0.31374101129520676     -0.6961606547205573
4.89E9                   -0.3729960591763732      -0.6654293563812336
4.92E9                   -0.4292421102613025      -0.6296786569869744
4.95E9                   -0.48205556120728743     -0.5892005258922149
4.98E9                   -0.5310410940028304      -0.5443226648570446
5.01E9                   -0.57583470389983        -0.4954056972870034
5.04E9                   -0.6161064094758228      -0.442840104500747
5.07E9                   -0.6515626306795088      -0.3870429628390146
5.1E9                    -0.681948237257158       -0.32845453034429956
5.13E9                   -0.7070482817881338      -0.267534718910467
5.16E9                   -0.7266894339691725      -0.20475947109907638
5.19E9                   -0.7407411244669254      -0.1406170456807619
5.22E9                   -0.7491163895810898      -0.07560421058020883
5.25E9                   -0.7517723904969277      -0.010222350071051817
5.28E9                   -0.7487105726156967      0.05502648695015416
5.31E9                   -0.7399764379262648      0.11964354777163336
5.34E9                   -0.7256589251084974      0.1831372817182346
5.37E9                   -0.7058894187434838      0.24502712898413606
5.4E9                    -0.6808404289169512      0.304847147469415
5.43E9                   -0.6507239880998297      0.36214945666211684
5.46E9                   -0.6157898033538548      0.41650749830022415
5.49E9                   -0.5763231847594977      0.46751912343498736
5.52E9                   -0.532642753238124       0.5148095136685688
5.55E9                   -0.48509791885414794     0.558033933204839
5.58E9                   -0.4340661169415529      0.5968802929406071
5.61E9                   -0.37994979436409376     0.6310714923158027
5.64E9                   -0.3231731507683723      0.6603674925802374
5.67E9                   -0.26417865819059844     0.6845670694715438
5.7E9                    -0.20342340415355553     0.7035091970246996
5.73E9                   -0.14137532294695793     0.7170740296932202
5.76E9                   -0.0785093901578625      0.7251834755851351
5.79E9                   -0.015303850010125864    0.7278013826469042
5.82E9                   0.0477634761102566       0.7249333806916043
5.85E9                   0.11021877998675081      0.7166264262053408
5.88E9                   0.17159575852105233      0.702968083382058
5.91E9                   0.23143901730349992      0.6840855526405467
5.94E9                   0.2893073874118061       0.6601444392313596
5.97E9                   0.34477714048846697      0.6313472472444822
6.0E9                    0.397445071140076        0.5979315888850935
