% Model:              three_layers reality at 0.1mm.mph
% Version:            COMSOL 5.6.0.280
% Date:               Feb 23 2022, 09:44
% Table:              表格 1 - 全局计算 1
% freq (Hz)              real(emw.S11) (1)        imag(emw.S11) (1)
300000000                0.5491472922117471       -0.7446217811437483
330000000                0.4786053067655365       -0.790185882536325
360000000                0.40442861484361414      -0.8292187249048629
390000000                0.3271946234704558       -0.8614215511194211
420000000                0.2475113251781682       -0.8865474341085214
450000000                0.1660111051000122       -0.9044043693629183
480000000                0.08334473080812561      -0.914857653222888
510000000                1.7542247930748547E-4    -0.9178316288170075
540000000                -0.0828270472647164      -0.9133108410079752
570000000                -0.1649922330465744      -0.9013406189784527
600000000                -0.24565486818468296     -0.8820270955759494
630000000                -0.32416066015610145     -0.8555366684667535
660000000                -0.3998719970464265      -0.8220949080805149
690000000                -0.47217352290088804     -0.7819849194603982
720000000                -0.5404775363182822      -0.7355451690005199
750000000                -0.6042291651486997      -0.6831667911348416
780000000                -0.6629112680247069      -0.6252903956751956
810000000                -0.7160490145029432      -0.5624024017408366
840000000                -0.7632140968615362      -0.4950309299525286
870000000                -0.8040285293218994      -0.42374128975603087
900000000                -0.8381679935013695      -0.3491311044971642
930000000                -0.8653646936586524      -0.2718251212167602
960000000                -0.8854096899405794      -0.192469757106294
990000000                -0.8981546841118411      -0.111727437216337
1020000000               -0.9035132378243347      -0.03027078245384758
1050000000               -0.901461410892982       0.05122329266475424
1080000000               -0.8920378134703713      0.1320795105361736
1110000000               -0.8753430734013774      0.21163012755060448
1140000000               -0.8515387270858391      0.2892207367190283
1170000000               -0.8208455490215392      0.36421591643255957
1200000000               -0.7835413419709415      0.4360046679590681
1230000000               -0.7399582158727289      0.5040055880984403
1260000000               -0.6904793891870762      0.5676717274168314
1290000000               -0.6355355516721135      0.6264950886748532
1320000000               -0.5756008316321912      0.6800107259173825
1350000000               -0.5111884145058646      0.7278004098753064
1380000000               -0.4428458620939262      0.7694958316079813
1410000000               -0.3711501841479814      0.8047813220095863
1440000000               -0.29670271444174673     0.8333960714840075
1470000000               -0.22012384459281797     0.8551358395539451
1500000000               -0.14204766768936158     0.8698541505788047
1530000000               -0.06311658325267207     0.8774629769823113
1560000000               0.01602408706764784      0.8779329168023984
1590000000               0.09473142550356926      0.8712928770940365
1620000000               0.17237014169919185      0.8576292790837567
1650000000               0.24831765167602493      0.8370848047354666
1680000000               0.3219689745541084       0.8098567076561758
1710000000               0.3927414118312131       0.7761947140757581
1740000000               0.46007897838727774      0.7363985417711758
1770000000               0.5234565575073257       0.6908150666373498
1800000000               0.5823837560920281       0.6398351677907302
1830000000               0.6364084394199179       0.5838902831221425
1860000000               0.6851199286091781       0.523448707452466
1890000000               0.728151846646174        0.4590116660091057
1920000000               0.7651846024506533       0.3911091954396796
1950000000               0.7959475050813556       0.32029586446657254
1980000000               0.8202205032298739       0.24714636551329297
2010000000               0.8378355479350831       0.1722510075889567
2040000000               0.8486775791738111       0.09621113916777962
2070000000               0.8526851395104487       0.01963452731164469
2100000000               0.8498506197912971       -0.056869284070677
2130000000               0.8402201423085721       -0.13269361916165862
2.16E9                   0.8238930838737183       -0.20723930727161177
2.19E9                   0.8010212324613359       -0.27991930723093245
2.22E9                   0.771807553457752        -0.3501633164318257
2.25E9                   0.7365045150471847       -0.417422349760893
2.28E9                   0.6954118969391563       -0.48117323336679596
2.31E9                   0.6488740098299289       -0.5409228837385285
2.34E9                   0.5972763285706643       -0.5962121548428716
2.37E9                   0.541041707982349        -0.6466190143497702
2.4E9                    0.4806265351820731       -0.6917609490338625
2.43E9                   0.41651719928907077      -0.7312967973006925
2.46E9                   0.3492270061625533       -0.7649284607273101
2.49E9                   0.27929327013410055      -0.7924029000951014
2.52E9                   0.2072741064226733       -0.8135144711523596
2.55E9                   0.13374458811188283      -0.8281072980485796
2.58E9                   0.05929225040571904      -0.8360772815291471
2.61E9                   -0.015487845670638302    -0.8373734789195098
2.64E9                   -0.08999823399784966     -0.8319987895679468
2.67E9                   -0.1636441634654176      -0.820010001708452
2.7E9                    -0.23583862082786916     -0.8015172892074954
2.73E9                   -0.30600721605259196     -0.7766832302307191
2.76E9                   -0.3735929129179173      -0.7457213926378716
2.79E9                   -0.43806058990711005     -0.708894510624225
2.82E9                   -0.49890141102061947     -0.6665122670241478
2.85E9                   -0.5556369797291248      -0.6189286933345357
2.88E9                   -0.607823244730297       -0.5665392015896927
2.91E9                   -0.6550541238407585      -0.5097772664356668
2.94E9                   -0.6969648120995053      -0.4491107806206328
2.97E9                   -0.7332347412162435      -0.3850381122993612
3.0E9                    -0.7635901602372277      -0.3180838969075546
3.03E9                   -0.7878063104777002      -0.2487946006283396
3.06E9                   -0.8057091718277791      -0.1777338961800365
3.09E9                   -0.8171767623737014      -0.10547789415369174
3.12E9                   -0.8221399781543479      -0.03261027561959494
3.15E9                   -0.820582965342111       0.040282627168345235
3.18E9                   -0.8125430225403307      0.11261675458395802
3.21E9                   -0.7981100362650673      0.1838152009299574
3.24E9                   -0.7774254577362121      0.2533130073625148
3.27E9                   -0.7506808337524774      0.3205618221555277
3.3E9                    -0.7181159084713056      0.38503438638182785
3.33E9                   -0.6800163164320066      0.4462288052625059
3.36E9                   -0.6367108903037234      0.5036725676766977
3.39E9                   -0.5885686096339263      0.5569262785838907
3.42E9                   -0.5359952198134926      0.6055870708839901
3.45E9                   -0.47942955370225704     0.6492916651382732
3.48E9                   -0.41933959220076855     0.6877190475764192
3.51E9                   -0.3562183044789559      0.7205927396374827
3.54E9                   -0.2905793136447211      0.7476826362777581
3.57E9                   -0.22295243831487088     0.7688063962513945
3.6E9                    -0.15387916455592077     0.783830375346332
3.63E9                   -0.08390810414493188     0.7926701031476449
3.66E9                   -0.013590494152124856    0.7952903138868912
3.69E9                   0.05652421119042259      0.7917045513158705
3.72E9                   0.1258926113492521       0.7819743752075639
3.75E9                   0.19398145508399908      0.7662082028868089
3.78E9                   0.26027153058604446      0.7445598236504445
3.81E9                   0.32426132843011557      0.7172266273854041
3.84E9                   0.3854704664221895       0.6844475902661037
3.87E9                   0.44344287737335136      0.6465010583447457
3.9E9                    0.49774977276574595      0.6037023619394392
3.93E9                   0.5479924026793835       0.5564012799896261
3.96E9                   0.5938046316921398       0.5049793568361627
3.99E9                   0.6348553405263019       0.4498470594975168
4.02E9                   0.6708506465152191       0.3914407568556335
4.05E9                   0.7015359181154399       0.33021950573585185
4.08E9                   0.7266975454733494       0.2666616418284416
4.11E9                   0.7461644246965797       0.20126119096571604
4.14E9                   0.759809118373521        0.13452413335309202
4.17E9                   0.7675486668187077       0.06696456522535088
4.2E9                    0.7693450395433317       -8.991928366939031E-4
4.23E9                   0.7652052305797444       -0.06854849404147742
4.26E9                   0.7551810115167528       -0.135468230861969
4.29E9                   0.7393683608322328       -0.20115063823589954
4.32E9                   0.7179065876312638       -0.2650990141158506
4.35E9                   0.6909771637671291       -0.3268313427402893
4.38E9                   0.658802273016482        -0.3858838076684535
4.41E9                   0.6216430818502836       -0.4418141798049142
4.44E9                   0.5797977348013245       -0.49420506157426314
4.47E9                   0.5335990789121222       -0.5426669640952917
4.5E9                    0.48341212553707696      -0.5868411910374386
4.53E9                   0.4296312630459618       -0.6264025014997433
4.56E9                   0.37267723954366316      -0.6610615251161447
4.59E9                   0.3129939399967917       -0.6905669053451557
4.62E9                   0.2510449861513793       -0.7147071515069018
4.65E9                   0.1873101897597964       -0.7333121858787646
4.68E9                   0.12228188927374202      -0.7462545780939734
4.71E9                   0.05646119704080821      -0.7534504637780268
4.74E9                   -0.009645820223991564    -0.7548601460996279
4.77E9                   -0.07553200897898141     -0.7504883772165011
4.8E9                    -0.1406930264851754      -0.7403843121868006
4.83E9                   -0.20463124725519155     -0.7246411232470009
4.86E9                   -0.26685964960541303     -0.7033952604257562
4.89E9                   -0.32690564462972777     -0.6768253472392147
4.92E9                   -0.3843148022217573      -0.6451507081062311
4.95E9                   -0.43865442495370355     -0.6086295356026374
4.98E9                   -0.4895169221190179      -0.5675567182887017
5.01E9                   -0.5365229424715345      -0.5222613613657561
5.04E9                   -0.5793242349384619      -0.47310404031957926
5.07E9                   -0.6176062193232403      -0.4204738307017314
5.1E9                    -0.6510902616198446      -0.3647851541485207
5.13E9                   -0.6795356577052911      -0.30647447190592636
5.16E9                   -0.7027413313636643      -0.24599684542228717
5.19E9                   -0.7205472469140668      -0.18382237283634006
5.22E9                   -0.7328355244096642      -0.12043250686066848
5.25E9                   -0.7395312329077077      -0.056316266207347754
5.28E9                   -0.7406028317153177      0.008033631652966786
5.31E9                   -0.7360622359018126      0.07212467079350565
5.34E9                   -0.7259644996291899      0.13546841339068144
5.37E9                   -0.7104071319984828      0.19758429684140422
5.4E9                    -0.6895290762811729      0.2580033084985586
5.43E9                   -0.663509388822073       0.31627151326731534
5.46E9                   -0.6325656483030255      0.37195342532678366
5.49E9                   -0.5969521140506228      0.42463522319570474
5.52E9                   -0.5569576393683274      0.4739278066397713
5.55E9                   -0.512903337311609       0.5194696860527077
5.58E9                   -0.4651399938658532      0.5609296839243427
5.61E9                   -0.4140452276502778      0.5980094166860027
5.64E9                   -0.36002040504253163     0.630445516594023
5.67E9                   -0.3034873341003403      0.6580115493200872
5.7E9                    -0.24488477751316468     0.680519586227585
5.73E9                   -0.18466484028307237     0.6978214024188212
5.76E9                   -0.12328929619958445     0.7098092918099815
5.79E9                   -0.061225913578058844    0.7164165133771959
5.82E9                   0.0010551750990030583    0.7176173998724896
5.85E9                   0.06308503669551264      0.7134271645689059
5.88E9                   0.12439942882895583      0.7039014323973972
5.91E9                   0.18454222011860058      0.6891355057195607
5.94E9                   0.24306873448265592      0.6692633612066468
5.97E9                   0.2995490026299383       0.6444563689626109
6.0E9                    0.353570892057024        0.6149217286336618
