% Model:              three_layers reality at 0.1mm.mph
% Version:            COMSOL 5.6.0.280
% Date:               Feb 25 2022, 14:56
% Table:              表格 1 - 全局计算 1
% freq (Hz)              real(emw.S11) (1)        imag(emw.S11) (1)
300000000                0.5788563307810318       -0.7742618126716149
330000000                0.505002273228126        -0.8236981827702983
360000000                0.4270275113271442       -0.8661383049053417
390000000                0.34558872286011244      -0.9012400162406448
420000000                0.2613626118928277       -0.9287258173551592
450000000                0.17505231841983165      -0.948377842177401
480000000                0.0873791200603435       -0.960042122723796
510000000                -9.234275075611365E-4    -0.9636304401157396
540000000                -0.08911559577881718     -0.9591215912390819
570000000                -0.17645773504512408     -0.9465620417673819
600000000                -0.26221660678405645     -0.9260659556408097
630000000                -0.345671735289119       -0.897814594801718
660000000                -0.42612171409334687     -0.8620550880670808
690000000                -0.5028904010229472      -0.8190985733638233
720000000                -0.5753329388768347      -0.7693177237117097
750000000                -0.6428415346786522      -0.713143674600027
780000000                -0.7048509374810854      -0.6510623755561517
810000000                -0.7608435506335779      -0.5836103982948878
840000000                -0.8103541226453816      -0.5113702377485646
870000000                -0.8529739608550833      -0.4349651522710746
900000000                -0.8883546201826772      -0.3550535926832827
930000000                -0.9162110226256304      -0.2723232776735511
960000000                -0.9363239713296168      -0.18748497706037814
990000000                -0.9485420291956361      -0.1012660697659536
1020000000               -0.952782741288206       -0.014403944646373484
1050000000               -0.9490331870740878      0.07236068270855606
1080000000               -0.9373498583387859      0.15829046561874652
1110000000               -0.9178578666615554      0.24265806140651278
1140000000               -0.8907494929897866      0.3247526338258495
1170000000               -0.85628210031792        0.40388615497329144
1200000000               -0.8147754380493386      0.4793994401234645
1230000000               -0.7666083742783711      0.5506678541152147
1260000000               -0.7122150983085386      0.6171066338781561
1290000000               -0.6520808416544286      0.6781757766805825
1320000000               -0.5867371705548076      0.7333844508094147
1350000000               -0.5167569066675909      0.7822948921433218
1380000000               -0.44274873558447586     0.8245257575874284
1410000000               -0.36535156393255835     0.8597549139260899
1440000000               -0.2852286875107998      0.8877216473739495
1470000000               -0.20306183193259103     0.9082282868853121
1500000000               -0.11954512609237807     0.9211412411439318
1530000000               -0.035379067710352353    0.9263914550130032
1560000000               0.048735463497284394     0.9239742979290985
1590000000               0.13210309167055065      0.9139489014106564
1620000000               0.21403968070917384      0.8964369679999961
1650000000               0.29387787466969345      0.8716210777197825
1680000000               0.3709724018039211       0.83974252160852
1710000000               0.44470510531558         0.8010986946240277
1740000000               0.5144896685582433       0.756040082224396
1770000000               0.5797760065690326       0.7049668764766371
1800000000               0.6400543003052666       0.6483252584181035
1830000000               0.6948586531240519       0.5866033842405717
1860000000               0.7437703542831632       0.5203271121274721
1890000000               0.7864207356384775       0.45005550774313474
1920000000               0.8224936132381775       0.3763761640623165
1950000000               0.851727306207955        0.2999003724043665
1980000000               0.8739162295684836       0.22125817929668112
2010000000               0.8889120591494536       0.1410933634978878
2040000000               0.8966244689818318       0.06005836684165736
2070000000               0.8970214437984279       -0.021190789166577795
2100000000               0.8901291706592098       -0.10199956888195423
2130000000               0.8760315157709091       -0.18171994014633533
2.16E9                   0.8548690939329617       -0.2597153137011153
2.19E9                   0.826837939838952        -0.3353653758256361
2.22E9                   0.7921877919436628       -0.4080707863445251
2.25E9                   0.7512200012163213       -0.47725771527754246
2.28E9                   0.704285078212158        -0.5423821935450067
2.31E9                   0.6517798928861354       -0.6029342543882286
2.34E9                   0.5941445411166862       -0.6584418451803495
2.37E9                   0.5318588898399945       -0.7084744912668498
2.4E9                    0.46543880819106964      -0.7526466942690502
2.43E9                   0.395432084543552        -0.7906210442720503
2.46E9                   0.3224140207267045       -0.8221110145908862
2.49E9                   0.24698269108428797      -0.8468833849376743
2.52E9                   0.16975386697751063      -0.864760204287145
2.55E9                   0.09135565414172415      -0.8756201703195485
2.58E9                   0.012422973787645475     -0.8793993009290549
2.61E9                   -0.06640788567617158     -0.8760908442894879
2.64E9                   -0.1445043883527351      -0.8657445289519047
2.67E9                   -0.22124238928432485     -0.8484654218703036
2.7E9                    -0.29601036693228117     -0.8244127068960178
2.73E9                   -0.3682135268997681      -0.7937985428880852
2.76E9                   -0.43727807245077366     -0.7568869002039889
2.79E9                   -0.5026557589720281      -0.7139920977823734
2.82E9                   -0.5638286250392588      -0.6654767754149556
2.85E9                   -0.6203136681595621      -0.611749180247648
2.88E9                   -0.6716672412230782      -0.5532597969022063
2.91E9                   -0.7174890225804884      -0.4904974329245761
2.94E9                   -0.7574254906336346      -0.42398488586214206
2.97E9                   -0.7911728840228891      -0.35427429625885837
3.0E9                    -0.8184796477080423      -0.2819422648878169
3.03E9                   -0.8391483694649324      -0.20758479271055186
3.06E9                   -0.8530372087979989      -0.13181209225514198
3.09E9                   -0.8600608180051961      -0.05524331579398981
3.12E9                   -0.8601907548322121      0.021498753902787642
3.15E9                   -0.8534553883819248      0.09779300387343709
3.18E9                   -0.8399393034320911      0.1730252341089501
3.21E9                   -0.8197822131970007      0.24659329596419113
3.24E9                   -0.7931773955293533      0.317912078575635
3.27E9                   -0.760369672627212       0.3864182981906046
3.3E9                    -0.7216529590901012      0.4515750474229925
3.33E9                   -0.6773674072255251      0.5128760655395251
3.36E9                   -0.6278961824338266      0.5698496935404775
3.39E9                   -0.5736619044792537      0.622062482615649
3.42E9                   -0.5151227930891856      0.6691224284635585
3.45E9                   -0.45276855868881544     0.7106818082068145
3.48E9                   -0.38711608034223777     0.746439601661901
3.51E9                   -0.3187049144413225      0.7761434829422396
3.54E9                   -0.2480926782824253      0.7995913732971434
3.57E9                   -0.17585035248919195     0.8166325510369005
3.6E9                    -0.10255754618717372     0.8271683189146025
3.63E9                   -0.02879776724440042     0.8311522343381244
3.66E9                   0.044846261827053625     0.8285899121260446
3.69E9                   0.11779720435670048      0.8195384135246164
3.72E9                   0.18948759181033062      0.8041052384567465
3.75E9                   0.2593641570451398       0.7824469400602193
3.78E9                   0.32689199040231964      0.7547673816242924
3.81E9                   0.39155849408741317      0.7213156561365888
3.84E9                   0.4528771106312872       0.6823836885227754
3.87E9                   0.5103908023571428       0.6383035406861006
3.9E9                    0.5636752574088176       0.5894444410167904
3.93E9                   0.612341797767487        0.5362095628549196
3.96E9                   0.6560399644240502       0.4790325816237176
3.99E9                   0.6944597580791303       0.4183740462193433
4.02E9                   0.7273335191680848       0.3547176067394043
4.05E9                   0.7544374406659569       0.2885661445018081
4.08E9                   0.7755927185027418       0.22043785039494349
4.11E9                   0.7906663556719735       0.15086229199409426
4.14E9                   0.7995716435431636       0.08037649917896778
4.17E9                   0.8022683446934785       0.009521085886472415
4.2E9                    0.7987625961332547       -0.0611635850903003
4.23E9                   0.7891065421117262       -0.1311411911561701
4.26E9                   0.7733976972706554       -0.1998831873046035
4.29E9                   0.751778037175896        -0.2668724797607169
4.32E9                   0.7244328153706839       -0.33160701733158054
4.35E9                   0.6915891116846361       -0.3936032795708827
4.38E9                   0.6535141212877357       -0.45239964352838663
4.41E9                   0.6105131948400189       -0.5075596156772307
4.44E9                   0.5629276367125158       -0.5586749188966629
4.47E9                   0.5111322628393199       -0.6053684238651713
4.5E9                    0.45553271592591504      -0.6472969088149232
4.53E9                   0.39656253617183435      -0.6841536237901317
4.56E9                   0.3346799907589457       -0.7156706283998757
4.59E9                   0.2703646741659803       -0.7416208677996432
4.62E9                   0.2041139017090842       -0.7618199516880074
4.65E9                   0.13643892815297462      -0.7761276054880779
4.68E9                   0.06786103039379032      -0.7844487704645948
4.71E9                   -0.001092503324309213    -0.7867343390230849
4.74E9                   -0.06989243536700336     -0.7829815209494616
4.77E9                   -0.13801165353411396     -0.7732338442024642
4.8E9                    -0.2049292263315021      -0.7575807984032326
4.83E9                   -0.27013441209200784     -0.7361571298573177
4.86E9                   -0.33313059924302135     -0.7091417946894824
4.89E9                   -0.39343915507698174     -0.676756573322701
4.92E9                   -0.4506031577174069      -0.6392643475193546
4.95E9                   -0.5041909812743136      -0.5969670418608912
4.98E9                   -0.5537996998765066      -0.550203235314417
5.01E9                   -0.5990582736230022      -0.499345454406084
5.04E9                   -0.6396304789004668      -0.44479716660913654
5.07E9                   -0.6752175472887976      -0.3869894996933259
5.1E9                    -0.7055604808747343      -0.32637771968781326
5.13E9                   -0.7304420175910358      -0.26343750592692566
5.16E9                   -0.7496882277075763      -0.1986610659619074
5.19E9                   -0.7631697315930235      -0.1325531345996774
5.22E9                   -0.7708025376774448      -0.06562689909548886
5.25E9                   -0.7725485058902165      0.0016001130637111273
5.28E9                   -0.7684154437195659      0.06861015436291899
5.31E9                   -0.7584568393722302      0.13488936132030668
5.34E9                   -0.7427712314089675      0.1999318185294506
5.37E9                   -0.7215012107291745      0.26324355433885377
5.4E9                    -0.6948320519299727      0.32434643191082235
5.43E9                   -0.662989977625267       0.38278189274213265
5.46E9                   -0.6262400695404108      0.43811450656421713
5.49E9                   -0.5848838514009331      0.48993528307837997
5.52E9                   -0.5392565784430164      0.5378647069437917
5.55E9                   -0.48972427573512056     0.5815554658818586
5.58E9                   -0.43668057157443196     0.6206948525810099
5.61E9                   -0.3805433730171009      0.6550068322715201
5.64E9                   -0.32175142647170873     0.6842537796314514
5.67E9                   -0.26076079799462754     0.7082378970298865
5.7E9                    -0.1980412953458533      0.7268023297699069
5.73E9                   -0.1340728422619195      0.7398319888604822
5.76E9                   -0.06934180949084023     0.7472540800277241
5.79E9                   -0.00433731216823503     0.7490383240650138
5.82E9                   0.060452502141248136     0.7451968468212306
5.85E9                   0.12454413278116264      0.7357837228371235
5.88E9                   0.1874623201226438       0.7208941738070054
5.91E9                   0.24874350405091228      0.7006634438057611
5.94E9                   0.3079391098829167       0.6752653883321125
5.97E9                   0.36461864293599505      0.6449108186153477
6.0E9                    0.4183725880459077       0.6098456373266126
