% Model:              cali 1.19 0.25mm.mph
% Version:            COMSOL 5.6.0.280
% Date:               Feb 27 2022, 12:12
% Table:              表格 1 - 全局计算 1
% freq (Hz)              real(emw.S11) (1)        imag(emw.S11) (1)
300000000                0.5903687658625739       -0.7431511224746261
330000000                0.5223044257801209       -0.791450440288548
360000000                0.45042410075553274      -0.8336152241719792
390000000                0.3752621705630581       -0.8693405554735387
420000000                0.29738106295195976      -0.8983683864381741
450000000                0.21736617478986917      -0.9204901585073687
480000000                0.13582084056866997      -0.9355488604131268
510000000                0.05336130785631674      -0.9434405698345523
540000000                -0.029388292579521826    -0.9441155041357266
570000000                -0.11180097358346366     -0.9375785949429771
600000000                -0.19325189803539278     -0.9238895970039085
630000000                -0.2731233388741754      -0.903162739835651
660000000                -0.35080956305025435     -0.8755659311536319
690000000                -0.425721608144761       -0.8413195220496563
720000000                -0.49729191665266764     -0.8006946465877788
750000000                -0.5649787954283204      -0.7540111501654686
780000000                -0.6282706652894922      -0.7016351246559438
810000000                -0.6866900685912883      -0.6439760705177286
840000000                -0.7397974029064461      -0.5814837093172963
870000000                -0.7871943509707784      -0.514644472960162
900000000                -0.8285269795469562      -0.4439776982348776
930000000                -0.8634884817335027      -0.37003155861704995
960000000                -0.8918215410035348      -0.29337876647714456
990000000                -0.9133202975995799      -0.21461208209368465
1020000000               -0.9278319020630614      -0.1343396666557516
1050000000               -0.935257644154956       -0.05318031819116778
1080000000               -0.9355536496363576      0.028241369100037217
1110000000               -0.9287311423339955      0.10929988260283639
1140000000               -0.9148562738926564      0.18937366648441112
1170000000               -0.8940495290946041      0.26784995903799397
1200000000               -0.8664847177551169      0.34412956446765874
1230000000               -0.8323875587162685      0.4176315443749834
1260000000               -0.7920338348016192      0.4877978229417592
1290000000               -0.7457470485763524      0.5540976676819056
1320000000               -0.6938955005909494      0.6160318907585802
1350000000               -0.6368888896541738      0.67313649181729
1380000000               -0.5751748379812316      0.7249856402761267
1410000000               -0.5092356520955004      0.7711943793319823
1440000000               -0.43958504116293506     0.8114214849826489
1470000000               -0.3667643168828225      0.8453723408424368
1500000000               -0.2913380386241068      0.8728013949568076
1530000000               -0.21388937896857982     0.8935140099346971
1560000000               -0.13501541704004955     0.9073677654250342
1590000000               -0.0553224258104212      0.9142733072802106
1620000000               0.02457883762302924      0.9141947896906081
1650000000               0.10407782995160453      0.9071499212594158
1680000000               0.18256888700223134      0.8932096149043233
1710000000               0.2594558277937468       0.8724972423187367
1740000000               0.3341564647353028       0.8451874980056762
1770000000               0.4061069877014589       0.8115048821737649
1800000000               0.4747661899973794       0.7717218156311745
1830000000               0.5396195071463794       0.7261564022887635
1860000000               0.6001828408543162       0.6751698568555057
1890000000               0.656006142700392        0.6191636158674201
1920000000               0.7066767326100944       0.5585761497717091
1950000000               0.751822324709654        0.49387949376543827
1980000000               0.79111372755197         0.4255755183187553
2010000000               0.8242671797786699       0.3541919724372335
2040000000               0.8510462871142267       0.28027835515010147
2070000000               0.8712635551139972       0.20440168985937335
2100000000               0.8847815569649407       0.12714226430840223
2130000000               0.8915137963263071       0.04908934607055135
2.16E9                   0.8914252871604416       -0.029163168758992636
2.19E9                   0.8845328053816154       -0.10702120871230143
2.22E9                   0.8709047393096943       -0.18389505835610614
2.25E9                   0.8506604951693011       -0.25920389448146947
2.28E9                   0.8239694592754795       -0.3323802470034838
2.31E9                   0.791049543892083        -0.40287432419654046
2.34E9                   0.7521653488231714       -0.47015815977598163
2.37E9                   0.7076259699883608       -0.5337295486607928
2.4E9                    0.6577824881092692       -0.593115743403973
2.43E9                   0.6030251733288424       -0.6478768914163286
2.46E9                   0.5437804404756877       -0.6976092035688009
2.49E9                   0.48050758105321273      -0.7419478539520044
2.52E9                   0.4136952863946668       -0.780569611176829
2.55E9                   0.343857966963904        -0.8131951943173688
2.58E9                   0.27153187212171076      -0.8395913346080868
2.61E9                   0.19727102211411918      -0.8595725148901816
2.64E9                   0.12164297543500845      -0.8730023563317766
2.67E9                   0.04522446451825673      -0.8797946258007663
2.7E9                    -0.03140306092196212     -0.8799138439070371
2.73E9                   -0.10765794106402211     -0.8733754802169827
2.76E9                   -0.1829628191698081      -0.8602457271816644
2.79E9                   -0.25674911353112145     -0.8406408494945667
2.82E9                   -0.32846139631579735     -0.8147261135386625
2.85E9                   -0.3975616255871849      -0.7827143145197829
2.88E9                   -0.46353318250735076     -0.7448639351727927
2.91E9                   -0.5258846819140229      -0.7014769830805501
2.94E9                   -0.5841535486071531      -0.6528965538559577
2.97E9                   -0.6379093705801125      -0.5995041509392892
3.0E9                    -0.6867570422372684      -0.5417167671279703
3.03E9                   -0.7303396930967468      -0.4799837145501961
3.06E9                   -0.7683413726974737      -0.41478318999926744
3.09E9                   -0.8004894455798474      -0.34661857967981513
3.12E9                   -0.8265566489620909      -0.2760145292458946
3.15E9                   -0.8463627761257947      -0.20351282135068646
3.18E9                   -0.8597759630654127      -0.12966810960343947
3.21E9                   -0.8667135684096183      -0.05504355729532763
3.24E9                   -0.8671426448405266      0.019793574687317832
3.27E9                   -0.861080004716372       0.09427635066739276
3.3E9                    -0.8485918847779725      0.16784255667061845
3.33E9                   -0.8297932162711892      0.239939034923212
3.36E9                   -0.8048465087121177      0.3100259207838009
3.39E9                   -0.7739603584544414      0.37758074627104693
3.42E9                   -0.7373875973880263      0.442102374244409
3.45E9                   -0.695423102151294       0.5031147285263021
3.48E9                   -0.6484012894700487      0.5601702881751337
3.51E9                   -0.5966933278154556      0.6128533187135266
3.54E9                   -0.5407040983653004      0.6607828193215982
3.57E9                   -0.4808689388777941      0.7036151715273459
3.6E9                    -0.41765020249498364     0.7410464807605585
3.63E9                   -0.3515336598405172      0.7728146064998045
3.66E9                   -0.2830247687879659      0.7987008783099163
3.69E9                   -0.21264483273593593     0.8185314943363793
3.72E9                   -0.14092706697527255     0.8321785962104369
3.75E9                   -0.06841259444616768     0.8395610116304216
3.78E9                   0.0043536037238453675    0.8406446550757081
3.81E9                   0.07682675257656478      0.8354425794405993
3.84E9                   0.14846632906952575      0.8240146766640012
3.87E9                   0.21874005518113648      0.8064670319951723
3.9E9                    0.287127807462381        0.7829509421299946
3.93E9                   0.35312541635429345      0.7536616104210055
3.96E9                   0.41624833277384         0.718836532475926
3.99E9                   0.4760351411845285       0.6787535840548925
4.02E9                   0.5320508980497047       0.633728821976471
4.05E9                   0.583890272624985        0.5841140092826834
4.08E9                   0.631180465270893        0.5302938785343669
4.11E9                   0.6735838780671415       0.47268315111051784
4.14E9                   0.7108005137669938       0.4117233347834942
4.17E9                   0.7425700819351513       0.3478793256623336
4.2E9                    0.768673794802568        0.2816358431353352
4.23E9                   0.7889358390282688       0.21349372829824748
4.26E9                   0.8032245133147445       0.14396613701298955
4.29E9                   0.8114530250940618       0.07357465926266647
4.32E9                   0.8135799427051886       0.0028453967683263574
4.35E9                   0.8096093028135343       -0.06769496928286699
4.38E9                   0.7995903761980095       -0.13752308879569689
4.41E9                   0.7836170985781798       -0.20612280097891716
4.44E9                   0.7618271764947164       -0.27298891131681563
4.47E9                   0.7344008810679231       -0.33763086082993
4.5E9                    0.701559544344806        -0.3995762641870725
4.53E9                   0.6635637737193485       -0.4583742961684915
4.56E9                   0.6207113995827349       -0.5135989085002749
4.59E9                   0.5733351703862456       -0.5648518604389305
4.62E9                   0.5218002084643235       -0.6117655464463171
4.65E9                   0.46650123997720105      -0.6540056032974523
4.68E9                   0.40785961380828284      -0.6912732775440609
4.71E9                   0.34632012737522566      -0.7233075334233837
4.74E9                   0.2823476810069671       -0.7498868821609767
4.77E9                   0.21642378638650187      -0.7708309159793876
4.8E9                    0.1490429569401794       -0.7860015340336028
4.83E9                   0.08070900907199921      -0.7953038516039381
4.86E9                   0.011931302567116121     -0.7986867875431151
4.89E9                   -0.05677905246187383     -0.796143327435284
4.92E9                   -0.12491299580079361     -0.7877104614580145
4.95E9                   -0.19196729840426166     -0.7734687968205876
4.98E9                   -0.2574482980665677      -0.7535418456721791
5.01E9                   -0.32087556178470866     -0.7280949909357629
5.04E9                   -0.38178544588137725     -0.697334134950312
5.07E9                   -0.43973452413802133     -0.6615040391176789
5.1E9                    -0.4943028541860126      -0.6208863667468121
5.13E9                   -0.5450970535951856      -0.5757974455973399
5.16E9                   -0.5917531595293329      -0.5265857706728778
5.19E9                   -0.633939249609434       -0.47362927070585475
5.22E9                   -0.6713578053770042      -0.4173323635635413
5.25E9                   -0.7037478035658395      -0.35812282581120203
5.28E9                   -0.7308865226757287      -0.29644850131827044
5.31E9                   -0.7525910537675679      -0.23277387344523284
5.34E9                   -0.7687195052451928      -0.1675765259452695
5.37E9                   -0.7791718925959322      -0.1013435190074349
5.4E9                    -0.7838907060402668      -0.03456770879284859
5.43E9                   -0.7828611519999673      0.03225595994293303
5.46E9                   -0.7761110677428555      0.0986341575940334
5.49E9                   -0.7637105122407846      0.1640788395034144
5.52E9                   -0.745771039825018       0.2281108523065396
5.55E9                   -0.7224446663984554      0.29026344888855976
5.58E9                   -0.6939225405348414      0.35008568625129377
5.61E9                   -0.660433333532952       0.4071456829397255
5.64E9                   -0.622241363310804       0.4610337148820325
5.67E9                   -0.5796444672217488      0.5113651299705664
5.7E9                    -0.5329716392744502      0.557783061987366
5.73E9                   -0.4825804486021225      0.5999609242697315
5.76E9                   -0.4288542587502098      0.6376046636140842
5.79E9                   -0.3721992708250384      0.6704547564445558
5.82E9                   -0.3130414165654921      0.6982879325005091
5.85E9                   -0.2518231290726724      0.7209186155035858
5.88E9                   -0.18900001896460045     0.7382000745152605
5.91E9                   -0.12503748268768664     0.7500252831554128
5.94E9                   -0.060407268132213865    0.7563274863365901
5.97E9                   0.0044159789262812055    0.7570804757717432
6.0E9                    0.06895816506102524      0.7522985764238146
