% Model:              three_layers reality at 0.1mm.mph
% Version:            COMSOL 5.6.0.280
% Date:               Feb 22 2022, 11:20
% Table:              表格 1 - 全局计算 1
% freq (Hz)              real(emw.S11) (1)        imag(emw.S11) (1)
300000000                0.53928141246508         -0.7279359437002862
330000000                0.47057060719058885      -0.7725126547487555
360000000                0.3983119948489451       -0.8107492905479886
390000000                0.3230673307885294       -0.8423550331411589
420000000                0.24542682516239456      -0.8670900696646009
450000000                0.16600340378182157      -0.8847680551799691
480000000                0.08542711214517773      -0.8952580871842021
510000000                0.004339566578920007     -0.8984861902537482
540000000                -0.07661158672925357     -0.8944363054065021
570000000                -0.15677821086734323     -0.8831507776125721
600000000                -0.2355172025363908      -0.8647303355799828
630000000                -0.31219597444266134     -0.8393335600017192
660000000                -0.386197861659958       -0.8071758395326694
690000000                -0.45692741127013686     -0.7685278178220267
720000000                -0.5238155120885004      -0.7237133391539263
750000000                -0.5863243183919579      -0.6731069055529827
780000000                -0.6439519216811949      -0.6171306630795399
810000000                -0.6962367243333573      -0.5562509407427986
840000000                -0.7427614708350069      -0.4909743705526472
870000000                -0.7831568943161935      -0.4218436227253648
900000000                -0.8171049394778186      -0.3494327948943211
930000000                -0.8443415268371922      -0.27434249895593743
960000000                -0.8646588280016811      -0.19719469318392163
990000000                -0.8779070268659868      -0.11862731083143122
1020000000               -0.8839955474302319      -0.03928873935073543
1050000000               -0.8828937351290165      0.0401677936130881
1080000000               -0.8746309850145816      0.11908987001233635
1110000000               -0.8592963167091869      0.19683150913051373
1140000000               -0.8370374026603633      0.27275871579017535
1170000000               -0.8080590627281794      0.3462548928964873
1200000000               -0.7726212443448763      0.41672606438044524
1230000000               -0.7310365134040567      0.48360585734511763
1260000000               -0.683667086382458       0.5463601959686097
1290000000               -0.6309214391039576      0.6044916638044389
1320000000               -0.5732505316933487      0.6575434959557787
1350000000               -0.5111436927608622      0.705103167735983
1380000000               -0.4451242086692109      0.7468055517910014
1410000000               -0.37574466570862974     0.7823356213819497
1440000000               -0.3035820941973718      0.811430683209896
1470000000               -0.22923296415891692     0.8338821287711708
1500000000               -0.15330808188823042     0.8495366988144561
1530000000               -0.07642743604095409     0.858297260692673
1560000000               7.849596468458842E-4     0.8601231034144616
1590000000               0.07770618186135306      0.855029759777286
1620000000               0.15371942846109976      0.8430883691187463
1650000000               0.2282189244779815       0.8244245979540692
1680000000               0.30061466621141336      0.7992171389584843
1710000000               0.37033696940578464      0.7676958115326934
1740000000               0.436840790892909        0.7301392894291809
1770000000               0.4996097964357434       0.6868724827004977
1800000000               0.5581601506476606       0.6382636027037899
1830000000               0.6120440084303795       0.5847209397488856
1860000000               0.6608526902916062       0.526689383752124
1890000000               0.7042195271668596       0.46464671845488575
1920000000               0.7418223631955734       0.3990997199428008
1950000000               0.7733857078935366       0.3305800898271008
1980000000               0.7986825318797067       0.25964025300039967
2010000000               0.8175357030359134       0.18684904904944985
2040000000               0.8298190627219544       0.11278734484369904
2070000000               0.8354581440247589       0.03804359382723232
2100000000               0.8344305359612225       -0.03679063593658515
2130000000               0.8267658979505349       -0.11112514749638087
2.16E9                   0.8125456262870266       -0.1843756033744295
2.19E9                   0.7919021661205108       -0.25596801157285975
2.22E9                   0.7650179458908305       -0.3253432062628817
2.25E9                   0.7321238861296856       -0.3919613089277273
2.28E9                   0.6934974101335876       -0.4553061183660656
2.31E9                   0.6494598865428988       -0.514889307051554
2.34E9                   0.6003735039949473       -0.570254218476549
2.37E9                   0.546637734805063        -0.6209790372498977
2.4E9                    0.48868572024074947      -0.6666792335977902
2.43E9                   0.426980938747791        -0.7070094643164608
2.46E9                   0.36201428200286173      -0.741665354636975
2.49E9                   0.29430128993704335      -0.7703855456233113
2.52E9                   0.2243790955732143       -0.7929540633881506
2.55E9                   0.15280275943672167      -0.8092027276291214
2.58E9                   0.08014097280142014      -0.81901321859458
2.61E9                   0.006971327382177784     -0.822318551065904
2.64E9                   -0.06612460731111387     -0.8191038890756177
2.67E9                   -0.13856622369896296     -0.8094067512182987
2.7E9                    -0.20977874029079074     -0.7933166879541256
2.73E9                   -0.2791979513275688      -0.7709744973745061
2.76E9                   -0.34627484454215        -0.7425710204238827
2.79E9                   -0.4104800720119432      -0.7083455374439216
2.82E9                   -0.47130825394850506     -0.6685837783303445
2.85E9                   -0.5282820890571837      -0.6236155563235584
2.88E9                   -0.5809562406441439      -0.5738120374414145
2.91E9                   -0.6289209652516708      -0.5195826615687202
2.94E9                   -0.6718054500578993      -0.4613717360419992
2.97E9                   -0.70928082634847        -0.39965472734299556
3.0E9                    -0.7410628284199071      -0.33493428115888
3.03E9                   -0.7669140704022853      -0.2677360050731261
3.06E9                   -0.7866459171157834      -0.19860405189387098
3.09E9                   -0.8001199294657351      -0.12809654448464314
3.12E9                   -0.8072488695790476      -0.056780885328223875
3.15E9                   -0.8079972559479309      0.014771004414351793
3.18E9                   -0.8023814640321678      0.08598747085124683
3.21E9                   -0.7904693729105843      0.15630189277675655
3.24E9                   -0.7723795635122639      0.22515738190257195
3.27E9                   -0.748280078465411       0.2920113745323931
3.3E9                    -0.7183867576635621      0.35634007314896937
3.33E9                   -0.6829611671777722      0.41764269836574197
3.36E9                   -0.6423081423053834      0.475445513681896
3.39E9                   -0.5967729684932718      0.5293055873087562
3.42E9                   -0.5467382268352065      0.578814257061146
3.45E9                   -0.4926203341912979      0.6236002658745595
3.48E9                   -0.434865811831968       0.6633325373870201
3.51E9                   -0.373947321065078       0.6977225635302564
3.54E9                   -0.31035950929864325     0.7265263798744482
3.57E9                   -0.2446147149794843      0.7495461099898963
3.6E9                    -0.17723858383094182     0.7666310676132456
3.63E9                   -0.10876565081427697     0.7776784145239515
3.66E9                   -0.039734941646316815    0.7826333817783396
3.69E9                   0.029314355766468125     0.7814890711589397
3.72E9                   0.09784710499460658      0.7742858613142894
3.75E9                   0.16533628138419765      0.7611104489997883
3.78E9                   0.23126684766402264      0.74209456048621
3.81E9                   0.2951394218031883       0.7174133718994702
3.84E9                   0.35647372398859434      0.6872836793056801
3.87E9                   0.41481180155989605      0.6519618578162931
3.9E9                    0.46972104218474764      0.6117416419472896
3.93E9                   0.5207969932657014       0.566951746624171
3.96E9                   0.567666005516122        0.5179533322657919
3.99E9                   0.6099877096301065       0.46513730339172543
4.02E9                   0.647457319268764        0.40892142332678755
4.05E9                   0.6798077364350554       0.3497472305597898
4.08E9                   0.7068114223444586       0.2880767543474583
4.11E9                   0.7282819923024637       0.2243890438886776
4.14E9                   0.7440754973287235       0.15917654192820624
4.17E9                   0.7540913664547259       0.09294134544969951
4.2E9                    0.75827299796557         0.026191401079720886
4.23E9                   0.7566080015672608       -0.04056331904779781
4.26E9                   0.7491281035471336       -0.10681462223837164
4.29E9                   0.7359087319125965       -0.17205985152806283
4.32E9                   0.7170682983203371       -0.23580557252738507
4.35E9                   0.6927671898706209       -0.2975711758373291
4.38E9                   0.6632064788096937       -0.3568923818542021
4.41E9                   0.628626354178541        -0.4133246331078693
4.44E9                   0.5893042778559137       -0.46644635554262676
4.47E9                   0.545552868752126        -0.515862065881341
4.5E9                    0.49771752247772183      -0.5612052991505149
4.53E9                   0.4461737788141436       -0.6021413289616454
4.56E9                   0.3913244547532113       -0.6383696538199308
4.59E9                   0.3335965659960298       -0.6696262252359695
4.62E9                   0.2734380638172663       -0.6956853977324654
4.65E9                   0.21131441647590707      -0.7163615862764505
4.68E9                   0.14770506407021652      -0.731510622467824
4.71E9                   0.08309977308820625      -0.7410308053327894
4.74E9                   0.017994912633525397     -0.7448636444562752
4.77E9                   -0.04711032947964        -0.742994291623157
4.8E9                    -0.11171777354451198     -0.7354516528846011
4.83E9                   -0.17533409734319536     -0.7223081683680341
4.86E9                   -0.2374746805385536      -0.703679244970405
4.89E9                   -0.2976674077862353      -0.6797223295159704
4.92E9                   -0.35545638647421396     -0.650635617284701
4.95E9                   -0.4104055309496582      -0.6166564018027684
4.98E9                   -0.4621019659297053      -0.5780590840771478
5.01E9                   -0.5101592075398645      -0.5351528707730282
5.04E9                   -0.5542200903285255      -0.4882791989336555
5.07E9                   -0.593959420870588       -0.43780892818796957
5.1E9                    -0.6290863508022788      -0.38413933892331975
5.13E9                   -0.6593464711880821      -0.32769096681188753
5.16E9                   -0.6845236327592119      -0.26890429270196503
5.19E9                   -0.7044414911831937      -0.20823629665983134
5.22E9                   -0.7189647649279007      -0.146156881124766
5.25E9                   -0.7280001808360088      -0.08314517439390534
5.28E9                   -0.7314970766368619      -0.01968574067518235
5.31E9                   -0.7294476352251067      0.04373525947833928
5.34E9                   -0.721886741925472       0.10663390300644904
5.37E9                   -0.708891476569427       0.1685322773566512
5.4E9                    -0.6905802683966987      0.22896214933248535
5.43E9                   -0.6671117477466         0.28746850387778156
5.46E9                   -0.6386833237394236      0.3436129424489731
5.49E9                   -0.6055295057987564      0.39697693894887887
5.52E9                   -0.5679199746669717      0.4471649506725848
5.55E9                   -0.526157399980491       0.49380737456952306
5.58E9                   -0.4805749988729394      0.5365633283237298
5.61E9                   -0.43153383371963694     0.5751232247393369
5.64E9                   -0.37941985650734256     0.6092110990877408
5.67E9                   -0.3246407213011739      0.6385866447603687
5.7E9                    -0.26762240292976786     0.6630469151931504
5.73E9                   -0.208805675557967       0.6824276613551805
5.76E9                   -0.14864251376814455     0.6966042934736392
5.79E9                   -0.08759247612781103     0.7054924781815212
5.82E9                   -0.026119116470564665    0.7090483996039202
5.85E9                   0.03531355284130662      0.7072687179089553
5.88E9                   0.09624453891044277      0.700190250593689
5.91E9                   0.15621928738611734      0.6878893863766887
5.94E9                   0.2147930373863595       0.6704812280497218
5.97E9                   0.2715340953543988       0.6481184551096704
6.0E9                    0.3260269994864034       0.6209899001657005
