% Model:              three_layers reality at 0.1mm.mph
% Version:            COMSOL 5.6.0.280
% Date:               Feb 23 2022, 19:56
% Table:              表格 1 - 全局计算 1
% freq (Hz)              real(emw.S11) (1)        imag(emw.S11) (1)
300000000                0.4489032861775091       -0.7276645004415571
330000000                0.37520509802938395      -0.7651010093125923
360000000                0.2986070527822568       -0.7953093614573521
390000000                0.2197839156964582       -0.8180574956537362
420000000                0.13943555224778256      -0.833179609437408
450000000                0.05827843388073522      -0.8405780302178734
480000000                -0.02296234721916033     -0.8402243121107784
510000000                -0.10356071559037705     -0.8321595844616848
540000000                -0.1827969715426111      -0.8164941756342605
570000000                -0.2599648877821477      -0.7934065354695533
600000000                -0.3343785320323622      -0.7631414819081542
630000000                -0.40537878636306135     -0.7260078005391372
660000000                -0.47233952649465333     -0.6823752295298359
690000000                -0.5346734190504734      -0.6326708669215657
720000000                -0.5918372948546782      -0.5773750412184322
750000000                -0.6433370564505516      -0.5170166908346653
780000000                -0.6887320813911858      -0.45216830155256704
810000000                -0.727639086001671       -0.3834404550209259
840000000                -0.7597354190656875      -0.31147604427958003
870000000                -0.7847617597638475      -0.23694421514511366
900000000                -0.8025241999047685      -0.16053409414975317
930000000                -0.8128956961705965      -0.08294836541198401
960000000                -0.8158168842726431      -0.004896759496310497
990000000                -0.8112962529872567      0.07291048228112855
1020000000               -0.7994096822904636      0.1497691053228998
1050000000               -0.7802993558470629      0.22498723898387915
1080000000               -0.7541720641239812      0.29789163350929315
1110000000               -0.7212969200803837      0.36783367873555933
1140000000               -0.6820025148737638      0.4341951494959071
1170000000               -0.6366735460888244      0.4963936260335502
1200000000               -0.5857469557052501      0.5538875415609436
1230000000               -0.5297076192413432      0.6061808133835713
1260000000               -0.46908363130500574     0.652827018565985
1290000000               -0.4044412359695095      0.6934330801521785
1320000000               -0.33637945313466855     0.7276624350505487
1350000000               -0.26552445411452635     0.7552376601400308
1380000000               -0.19252374130120276     0.7759425386081513
1410000000               -0.1180401877091457      0.7896235541269594
1440000000               -0.04274599266667796     0.7961908060266867
1470000000               0.03268339019673956      0.7956183441595126
1500000000               0.10757529728655034      0.787943927576013
1530000000               0.18126581727796598      0.773268216364782
1560000000               0.2531056187652702       0.7517534111164997
1590000000               0.3224655927114588       0.7236213592526867
1620000000               0.38874226183400895      0.6891511520464082
1650000000               0.45136291186048755      0.6486762403858448
1680000000               0.5097904030462861       0.6025811012395597
1710000000               0.563527623891101        0.5512974903486638
1740000000               0.6121215530725295       0.49530031981869654
1770000000               0.6551668998027328       0.43510320212179476
1800000000               0.6923092975089887       0.37125370428287263
1830000000               0.7232480305537341       0.30432835800284613
1860000000               0.7477382790166711       0.23492747274789158
1890000000               0.7655928721529606       0.16366979959479444
1920000000               0.7766835472238324       0.09118709348362115
1950000000               0.7809417169688015       0.018118620180419667
1980000000               0.7783587559366585       -0.05489434864311931
2010000000               0.768985823091834        -0.12721401448561578
2040000000               0.7529332446571506       -0.1982114766912224
2070000000               0.730369485251805        -0.2672720889742693
2100000000               0.7015197332339149       -0.3338007554762877
2130000000               0.6666641106388529       -0.39722720258957844
2.16E9                   0.6261354780722919       -0.4570112933572268
2.19E9                   0.5803167262163734       -0.5126484680056207
2.22E9                   0.5296373207137667       -0.5636753597811786
2.25E9                   0.4745687190524329       -0.6096754880674397
2.28E9                   0.4156182033919278       -0.6502846055257139
2.31E9                   0.353320871434492        -0.6851947924835821
2.34E9                   0.2882302205920128       -0.7141560036459478
2.37E9                   0.22090889207920592      -0.7369740230349414
2.4E9                    0.15192200592295554      -0.7535051341016397
2.43E9                   0.08183497635955117      -0.7636498235650647
2.46E9                   0.011215417043062637     -0.7673489010145937
2.49E9                   -0.05936376521627445     -0.7645841666334401
2.52E9                   -0.12932355561013048     -0.7553829413907877
2.55E9                   -0.19808199968777773     -0.7398237212197043
2.58E9                   -0.2650607139744999      -0.7180402837769353
2.61E9                   -0.32969290648012867     -0.6902230362369103
2.64E9                   -0.3914312572365846      -0.6566177940404985
2.67E9                   -0.44975478677392744     -0.6175228092450931
2.7E9                    -0.504174515095562       -0.5732848511255226
2.73E9                   -0.5542380586699832      -0.524294869682659
2.76E9                   -0.5995333997761827      -0.4709835083245401
2.79E9                   -0.6396920257133205      -0.41381656279095913
2.82E9                   -0.6743915669604627      -0.35329040163439585
2.85E9                   -0.7033580038417935      -0.2899273364307346
2.88E9                   -0.7263674711449449      -0.2242709293367134
2.91E9                   -0.7432476669932497      -0.15688123509004115
2.94E9                   -0.7538788610529727      -0.088329985899442
2.97E9                   -0.7581944933987433      -0.01919573765029176
3.0E9                    -0.756181355871285       0.04994099636105227
3.03E9                   -0.7478793507358064      0.11850259245696129
3.06E9                   -0.7333808257495067      0.18591910911263057
3.09E9                   -0.7128294896792999      0.2516329880105618
3.12E9                   -0.6864189174377904      0.31510362649122614
3.15E9                   -0.6543906588194107      0.375811785677587
3.18E9                   -0.6170319688572614      0.43326380125687475
3.21E9                   -0.5746731805317793      0.48699556754941686
3.24E9                   -0.5276847416083233      0.5365762693849451
3.27E9                   -0.47647393661301163     0.5816118396268021
3.3E9                    -0.42148131278304946     0.6217481218972499
3.33E9                   -0.3631768261215886      0.6566737173484724
3.36E9                   -0.3020557216783468      0.6861224909275907
3.39E9                   -0.23863416252330438     0.7098757065159219
3.42E9                   -0.17344462597349042     0.7277637527556995
3.45E9                   -0.10703109473348178     0.7396674139258289
3.48E9                   -0.03994408514943242     0.7455186354273332
3.51E9                   0.02726442597064942      0.7453007343023851
3.54E9                   0.09404609309832726      0.739048014585152
3.57E9                   0.15986120990721098      0.7268447668358788
3.6E9                    0.22418351891300148      0.7088236601130663
3.63E9                   0.2865047081735879       0.6851635688776571
3.66E9                   0.34633849386764215      0.656086910453884
3.69E9                   0.4032242121636436       0.6218565944423587
3.72E9                   0.4567298739497361       0.582772700844691
3.75E9                   0.5064546666600747       0.539169010184228
3.78E9                   0.5520309178349972       0.4914095104400127
3.81E9                   0.5931255688382667       0.43988500318554735
3.84E9                   0.6294412482193604       0.38500991926588557
3.87E9                   0.660717078847955        0.3272194221328566
3.9E9                    0.6867293869090926       0.2669668173373526
3.93E9                   0.7072924837780676       0.20472120491901316
3.96E9                   0.722259648783917        0.14096522874009468
3.99E9                   0.7315243544568525       0.07619272273690895
4.02E9                   0.7350216683508304       0.010906052109047918
4.05E9                   0.7327296705147855       -0.05438699762382564
4.08E9                   0.7246706727550589       -0.11917683584967259
4.11E9                   0.7109120281074394       -0.18295613356839538
4.14E9                   0.6915663700826951       -0.24522420400678363
4.17E9                   0.6667912008408217       -0.3054915143497867
4.2E9                    0.6367878306858977       -0.3632841446536954
4.23E9                   0.601799737078363        -0.41814804491906926
4.26E9                   0.5621104472919148       -0.46965299618093664
4.29E9                   0.5180410525365006       -0.5173962381482813
4.32E9                   0.46994743951361484      -0.5610057690046111
4.35E9                   0.4182172907426955       -0.6001433436070873
4.38E9                   0.36326687170534555      -0.6345071942373457
4.41E9                   0.30553760169337246      -0.6638344799735947
4.44E9                   0.24549240057615088      -0.6879034471377588
4.47E9                   0.18361181358184808      -0.7065352635514315
4.5E9                    0.12038993502061911      -0.7195954792006384
4.53E9                   0.05633017316593847      -0.7269950669969724
4.56E9                   -0.008059082692762055    -0.7286910084175928
4.59E9                   -0.07226881936785433     -0.7246864075203705
4.62E9                   -0.13579370340572705     -0.7150301403272354
4.65E9                   -0.1981362604711066      -0.6998160709281877
4.68E9                   -0.2588108779441294      -0.6791818853428894
4.71E9                   -0.31734760511129034     -0.653307602669088
4.74E9                   -0.37329575360637296     -0.6224138154818957
4.77E9                   -0.4262273200626604      -0.5867596882341948
4.8E9                    -0.4757402540524662      -0.546640711303692
4.83E9                   -0.5214615750794611      -0.5023861820884677
4.86E9                   -0.5630503089494794      -0.45435637539143203
4.89E9                   -0.6002001792927445      -0.40293937873611024
4.92E9                   -0.6326419675717256      -0.348547600701365
4.95E9                   -0.6601454527016067      -0.29161400193630543
4.98E9                   -0.6825208607503315      -0.23258813756869445
5.01E9                   -0.6996197919449005      -0.17193212636021385
5.04E9                   -0.7113356391399854      -0.1101166696378541
5.07E9                   -0.7176035598172361      -0.047617228040103474
5.1E9                    -0.7184001014838528      0.015089573753239252
5.13E9                   -0.7137425956916339      0.07752929910456907
5.16E9                   -0.703688419207857       0.13923285169129992
5.19E9                   -0.6883341715390602      0.1997395128678288
5.22E9                   -0.667814750380639       0.2585999536381692
5.25E9                   -0.64230224829149        0.3153792706806724
5.28E9                   -0.6120045741414349      0.36966002543107734
5.31E9                   -0.5771637347940785      0.42104519711408966
5.34E9                   -0.5380537825154045      0.46916092962170497
5.37E9                   -0.4949785073085994      0.5136589743873601
5.4E9                    -0.44826899516584995     0.5542187952110952
5.43E9                   -0.3982811659650817      0.5905493749441443
5.46E9                   -0.34539335589996845     0.6223908160823016
5.49E9                   -0.2900039426108624      0.6495158402261392
5.52E9                   -0.23252895203243026     0.671731266065923
5.55E9                   -0.17339955110463984     0.6888794954118288
5.58E9                   -0.11305932544311476     0.7008399782971926
5.61E9                   -0.051961263657564066    0.7075305750155247
5.64E9                   0.009435585184380103     0.7089086949493466
5.67E9                   0.07066975426581355      0.7049720773531922
5.7E9                    0.13128121010067081      0.6957590954829609
5.73E9                   0.19081526712933083      0.6813485162143778
5.76E9                   0.24882640147458002      0.6618587245166725
5.79E9                   0.3048818288247652       0.6374465012625538
5.82E9                   0.3585647838216643       0.6083054900241841
5.85E9                   0.40947752330507914      0.5746644806828822
5.88E9                   0.457244133383248        0.5367855802675081
5.91E9                   0.5015132265660024       0.4949622664261581
5.94E9                   0.5419605756347371       0.4495172634498998
5.97E9                   0.5782916723498238       0.4008001645674824
6.0E9                    0.6102441491375971       0.3491847437501903
