% Model:              three_layers reality at 0.1mm.mph
% Version:            COMSOL 5.6.0.280
% Date:               Feb 23 2022, 11:30
% Table:              表格 1 - 全局计算 1
% freq (Hz)              real(emw.S11) (1)        imag(emw.S11) (1)
300000000                0.43144283515038995      -0.828709262592798
330000000                0.34035105930804976      -0.8674791850375398
360000000                0.24606550171552152      -0.8964069255743777
390000000                0.14960867774865322      -0.9152511230694288
420000000                0.05202535388628782      -0.9238725993902741
450000000                -0.045628760253880074    -0.9222378421251947
480000000                -0.14229865436054112     -0.9104207842210723
510000000                -0.23694176794144906     -0.8886029828843665
540000000                -0.3285396568111911      -0.8570722885447637
570000000                -0.41610940369882715     -0.8162200892044766
600000000                -0.49871461890620844     -0.7665372152579665
630000000                -0.5754758890986951      -0.7086085932391863
660000000                -0.6455805450933313      -0.643106742552501
690000000                -0.7082916309705798      -0.570784216053049
720000000                -0.7629559683314393      -0.49246509347318645
750000000                -0.8090112228980783      -0.40903564363443473
780000000                -0.8459918934014903      -0.32143427885843956
810000000                -0.8735341570257517      -0.2306409309816475
840000000                -0.8913795204402046      -0.1376659830643897
870000000                -0.8993772404439482      -0.04353889496837281
900000000                -0.8974854941113716      0.05070333773853944
930000000                -0.8857712937325628      0.14402775126140205
960000000                -0.8644091576030549      0.23541686894031832
990000000                -0.8336785628684895      0.3238799088230474
1020000000               -0.7939602213938528      0.40846361292370936
1050000000               -0.7457312336266932      0.4882625737067689
1080000000               -0.6895591883606979      0.5624289415792084
1110000000               -0.6260952884170857      0.6301814061222161
1140000000               -0.5560665926380615      0.6908133546105792
1170000000               -0.4802674742365155      0.743700122490222
1200000000               -0.3995504029190741      0.7883052631858188
1230000000               -0.3148161647485731      0.8241857773222017
1260000000               -0.2270036382811762      0.8509962548979824
1290000000               -0.13707924844266        0.8684918976868213
1320000000               -0.046026221252421534    0.8765304027057568
1350000000               0.04516623768715444      0.8750727011539539
1380000000               0.13551371956841615      0.8641825604606753
1410000000               0.22404722505571045      0.8440250697570341
1440000000               0.3098234991126944       0.8148640412675262
1470000000               0.3919349791754323       0.7770583714457074
1500000000               0.4695192543052953       0.7310574162428168
1530000000               0.5417679404006733       0.6773954445314132
1560000000               0.6079348848870254       0.6166852422988909
1590000000               0.667343623057478        0.549610947876001
1620000000               0.7193940178456135       0.47692020499513954
1650000000               0.7635680247569664       0.3994157258997176
1680000000               0.7994345338897588       0.3179463611573816
1710000000               0.8266532516397682       0.23339777603255718
1740000000               0.8449775952303696       0.1466828356530537
1770000000               0.8542565842074699       0.058731802017482265
1800000000               0.8544357236723056       -0.029517553705611613
1830000000               0.8455568849970423       -0.11712982164453285
1860000000               0.8277572004163816       -0.20318170647391517
1890000000               0.8012669985746964       -0.28677156741318033
1920000000               0.7664068184827489       -0.3670286539209883
1950000000               0.7235835492731724       -0.44312195339141636
1980000000               0.6732857522648588       -0.5142685764600046
2010000000               0.6160782291863619       -0.579741618259341
2040000000               0.5525959043490228       -0.6388774503771222
2070000000               0.4835370861698216       -0.6910824187040792
2100000000               0.40965615983370296      -0.735838945912768
2130000000               0.33175573056250374      -0.7727110593426118
2.16E9                   0.25067817816117605      -0.8013493727467624
2.19E9                   0.16729649435437433      -0.8214955183061463
2.22E9                   0.08250417262678021      -0.8329859103384227
2.25E9                   -0.0027961295265843235   -0.8357544772996873
2.28E9                   -0.08770529116037214     -0.829833622907772
2.31E9                   -0.1713413986518626      -0.8153523256523431
2.34E9                   -0.2528530289365559      -0.7925303659645501
2.37E9                   -0.33142981121931403     -0.7616686951296321
2.4E9                    -0.4063079734503027      -0.7231379194683285
2.43E9                   -0.47677049368977037     -0.677368549382918
2.46E9                   -0.5421445097879216      -0.6248461988536126
2.49E9                   -0.6018003390228901      -0.5661119567577512
2.52E9                   -0.6551551245190889      -0.5017649182544247
2.55E9                   -0.7016809524858608      -0.4324629866539682
2.58E9                   -0.7409149622530511      -0.3589197178517277
2.61E9                   -0.7724687617742465      -0.281897265473125
2.64E9                   -0.796035601079238       -0.2021967790101914
2.67E9                   -0.8113949734337477      -0.12064771562933736
2.7E9                    -0.8184149895172363      -0.03809705303570737
2.73E9                   -0.8170530389606165      0.0446011180192489
2.76E9                   -0.8073551670589965      0.12659546978028366
2.79E9                   -0.7894544474819624      0.2070467776955435
2.82E9                   -0.7635685118458468      0.2851367587037396
2.85E9                   -0.729996322817712       0.36007643118903454
2.88E9                   -0.6891142404016244      0.43111399661063743
2.91E9                   -0.6413714176925194      0.4975422209384882
2.94E9                   -0.5872845618694085      0.5587052788940364
2.97E9                   -0.5274321019310285      0.6140050153790564
3.0E9                    -0.4624478126260268      0.6629065755954293
3.03E9                   -0.3930139524942021      0.7049433565012476
3.06E9                   -0.3198539816517631      0.7397212365783904
3.09E9                   -0.243724931427386       0.7669220475491797
3.12E9                   -0.16540950282219866     0.786306259936703
3.15E9                   -0.08570797351188518     0.7977148637880592
3.18E9                   -0.005429993580125725    0.8010704354906043
3.21E9                   0.07461365159961826      0.7963773906868844
3.24E9                   0.15361923677214798      0.7837214307447724
3.27E9                   0.23079818070288596      0.7632681952599178
3.3E9                    0.30538495325341497      0.7352611352774858
3.33E9                   0.37664474302372997      0.7000186216012464
3.36E9                   0.4438808222117254       0.6579303008533901
3.39E9                   0.5064415404140192       0.6094527107430303
3.42E9                   0.5637268698981632       0.555104167718716
3.45E9                   0.615194412599751        0.495458947375602
3.48E9                   0.6603647660549467       0.4311407931399247
3.51E9                   0.6988261360780723       0.3628158127731272
3.54E9                   0.730238082822433        0.29118485456974585
3.57E9                   0.7543342989958642       0.21697549178839198
3.6E9                    0.7709243471327714       0.1409337782526802
3.63E9                   0.7798943255082303       0.06381596190535542
3.66E9                   0.7812064833468639       -0.013619649858313924
3.69E9                   0.7748978565573204       -0.0906204910743936
3.72E9                   0.761078037616737        -0.1664470489329863
3.75E9                   0.7399262250824439       -0.24037956588203177
3.78E9                   0.7116877221790461       -0.3117240512143216
3.81E9                   0.6766700725722192       -0.3798175679088937
3.84E9                   0.6352390304069641       -0.44403282033966146
3.87E9                   0.5878145475464475       -0.5037821422514887
3.9E9                    0.5348669082941477       -0.5585210591168394
3.93E9                   0.4769130465713103       -0.607751648112107
3.96E9                   0.41451295968611857      -0.651025913930752
3.99E9                   0.3482660226226374       -0.6879493267770472
4.02E9                   0.2788069470334397       -0.7181845437942913
4.05E9                   0.20680114360235535      -0.7414551942769996
4.08E9                   0.1329393313200342       -0.7575494963817508
4.11E9                   0.0579313637894984       -0.7663234208852853
4.14E9                   -0.01750062849117313     -0.7677031345646901
4.17E9                   -0.09262958395950278     -0.761686528060144
4.2E9                    -0.16673110221872492     -0.74834373340739
4.23E9                   -0.2390910473206277      -0.7278166348064974
4.26E9                   -0.30901297273153255     -0.7003174493540041
4.29E9                   -0.37582524317202043     -0.6661264900719651
4.32E9                   -0.4388877895662431      -0.6255892222061185
4.35E9                   -0.4975984742533044      -0.5791126966365232
4.38E9                   -0.5513990571051469      -0.5271614083524958
4.41E9                   -0.5997807429979028      -0.470252599345283
4.44E9                   -0.6422892676539795      -0.4089510138512095
4.47E9                   -0.6785294545691722      -0.34386312140511444
4.5E9                    -0.7081691602223504      -0.2756308448442473
4.53E9                   -0.7309425223380218      -0.204924859216638
4.56E9                   -0.7466524375438777      -0.13243755598923496
4.59E9                   -0.7551722181778443      -0.05887578995139007
4.62E9                   -0.756446410469852       0.01504646144251749
4.65E9                   -0.750490792814101       0.08861539818977718
4.68E9                   -0.7373916062842097      0.1611245473454971
4.71E9                   -0.7173040906599024      0.23188168430317027
4.74E9                   -0.6904504002421407      0.300215486106082
4.77E9                   -0.6571169528598626      0.36548190773024225
4.8E9                    -0.6176512306148776      0.42707028223775084
4.83E9                   -0.5724580177819832      0.4844091292408516
4.86E9                   -0.5219950466595393      0.536971618997602
4.89E9                   -0.4667680354225658      0.5842805972055438
4.92E9                   -0.407325141274065       0.6259130455447561
4.95E9                   -0.34425090593465657     0.6615038477760214
4.98E9                   -0.27815982364948416     0.6907487543169033
5.01E9                   -0.20968970077948434     0.7134064857027133
5.04E9                   -0.1394949905780866      0.7292999782925396
5.07E9                   -0.06824027116015419     0.7383168417382635
5.1E9                    0.0034060118352604364    0.740409152009989
5.13E9                   0.07477748685851218      0.7355927297453684
5.16E9                   0.1452155079469508       0.7239460381965624
5.19E9                   0.2140745982942013       0.7056087770223902
5.22E9                   0.28072777832150386      0.6807801654263775
5.25E9                   0.34457182471442815      0.6497168357596506
5.28E9                   0.4050324219783413       0.6127302338494499
5.31E9                   0.46156908574099487      0.5701834616927052
5.34E9                   0.513679700718467        0.522487584895066
5.37E9                   0.5609045463669118       0.4700975178339575
5.4E9                    0.602829764309734        0.4135076494748626
5.43E9                   0.6390903139960251       0.3532473609821195
5.46E9                   0.6693725262840332       0.28987652308906336
5.49E9                   0.6934163774719807       0.2239809772224735
5.52E9                   0.7110175708394686       0.15616793228118367
5.55E9                   0.7220294470945231       0.08706116972018293
5.58E9                   0.7263646710610794       0.017295949760901163
5.61E9                   0.7239965777610398       -0.05248645256473816
5.64E9                   0.714960019832926        -0.1216445896795475
5.67E9                   0.6993515501438271       -0.18954299060585808
5.7E9                    0.6773288064093038       -0.25555846525818376
5.73E9                   0.6491090395333974       -0.3190863539195796
5.76E9                   0.6149668292250319       -0.37954650146110275
5.79E9                   0.5752311251111586       -0.4363887869403317
5.82E9                   0.5302817979953328       -0.48909813773443345
5.85E9                   0.48054586182313985      -0.5371990605190142
5.88E9                   0.42649344734619704      -0.5802597808747983
5.91E9                   0.3686335180338889       -0.6178960762038979
5.94E9                   0.30750926206989715      -0.6497748276438718
5.97E9                   0.2436930900666898       -0.6756172431213168
6.0E9                    0.17778120610452303      -0.695201649071212
