% Model:              three_layers reality at 0.1mm.mph
% Version:            COMSOL 5.6.0.280
% Date:               Feb 23 2022, 16:31
% Table:              表格 1 - 全局计算 1
% freq (Hz)              real(emw.S11) (1)        imag(emw.S11) (1)
300000000                0.5374455970885528       -0.7400657258880731
330000000                0.4669959779053386       -0.7846419492266741
360000000                0.3930016423455145       -0.8226758279338263
390000000                0.31604241392722177      -0.8538760166889978
420000000                0.2367279129516213       -0.8780036383317654
450000000                0.15569137293431048      -0.8948751508650266
480000000                0.07358362944343781      -0.9043645807826138
510000000                -0.008932820695232912    -0.9064051633453293
540000000                -0.09118973273566483     -0.9009904091391203
570000000                -0.1725190089613191      -0.8881746054099415
600000000                -0.25225856063660895     -0.868072755740021
630000000                -0.32975811063447247     -0.8408599608653162
660000000                -0.4043848996215214      -0.8067702447814459
690000000                -0.4755292538157447      -0.7660948332472586
720000000                -0.5426099673514421      -0.7191798962426345
750000000                -0.6050794516596147      -0.6664237702759902
780000000                -0.6624286020827379      -0.6082736823733204
810000000                -0.7141913335566996      -0.5452220027679684
840000000                -0.7599487384953068      -0.47780205905134415
870000000                -0.7993328225910205      -0.40658355021057296
900000000                -0.8320297782304045      -0.33216760389393435
930000000                -0.8577827592636811      -0.2551815254960372
960000000                -0.8763941264708275      -0.17627329153954688
990000000                -0.8877271387670831      -0.09610584356279409
1020000000               -0.8917070716044802      -0.01535124158849145
1050000000               -0.888321750872303       0.06531526187744023
1080000000               -0.8776214976456127      0.14522116539993155
1110000000               -0.8597184862489468      0.2237026174001161
1140000000               -0.8347855253142904      0.30011020901513896
1170000000               -0.8030542783781164      0.3738146014522239
1200000000               -0.7648129472461886      0.4442119309270196
1230000000               -0.7204034475217488      0.5107289377171561
1260000000               -0.6702181112290582      0.5728277702342373
1290000000               -0.6146959566892511      0.6300104193764122
1320000000               -0.5543185695506121      0.6818227445890899
1350000000               -0.48960564294743875     0.72785805781601
1380000000               -0.4211102266844311      0.7677602385041529
1410000000               -0.349413737917636       0.8012263581148921
1440000000               -0.27512078584876604     0.8280087996270201
1470000000               -0.19885386409490682     0.8479168628038201
1500000000               -0.1212479630012604      0.8608178524882046
1530000000               -0.04294515347475532     0.8666376523826472
1560000000               0.0354108081950848       0.8653607921409364
1590000000               0.11317980731386951      0.8570300202882337
1620000000               0.1897305853007957       0.8417453997524561
1650000000               0.26444580034631077      0.8196629465134301
1680000000               0.33672689648664833      0.7909928350847386
1710000000               0.40599874664911834      0.7559971972405309
1740000000               0.4717140391720074       0.7149875424637364
1770000000               0.5333573804450431       0.668321830444369
1800000000               0.5904490905567077       0.616401226906185
1830000000               0.6425486716354698       0.5596665751944147
1860000000               0.6892579325449355       0.4985946161949265
1890000000               0.7302237564528966       0.43369398951288707
1920000000               0.765140501037914        0.3655010486707399
1950000000               0.7937520241803089       0.2945755225121955
1980000000               0.8158533307339465       0.2214960545440978
2010000000               0.831291839027903        0.1468556505783065
2040000000               0.8399682684400958       0.07125706354536812
2070000000               0.8418371520172041       -0.004691858434962548
2100000000               0.8369069799655979       -0.0803828383042022
2130000000               0.8252399800559147       -0.15521183408719125
2.16E9                   0.8069515374971662       -0.22858369110821974
2.19E9                   0.7822092467960694       -0.2999167800455524
2.22E9                   0.7512315681242563       -0.3686476206233993
2.25E9                   0.7142860311402285       -0.4342354763144773
2.28E9                   0.6716869008592365       -0.49616686064279103
2.31E9                   0.6237922250386166       -0.5539598110777358
2.34E9                   0.571000268223354        -0.6071676899749814
2.37E9                   0.5137455245248604       -0.6553822497667086
2.4E9                    0.4524947059772318       -0.6982358593222805
2.43E9                   0.38774312745193423      -0.735403122990216
2.46E9                   0.3200116196701995       -0.7666024028930378
2.49E9                   0.24984366013812062      -0.7915976938940037
2.52E9                   0.1778021870247729       -0.8102009044342449
2.55E9                   0.10446572624647371      -0.8222742010753148
2.58E9                   0.03042381892786157      -0.8277319702429072
2.61E9                   -0.04372801166289939     -0.8265421116320084
2.64E9                   -0.11739347121009286     -0.8187265970628078
2.67E9                   -0.18998068297771767     -0.8043613621567016
2.7E9                    -0.2609072517950883      -0.7835756319227748
2.73E9                   -0.3296051642118461      -0.7565507616200516
2.76E9                   -0.39552550984426454     -0.7235186434375213
2.79E9                   -0.45814301172381333     -0.684759706736633
2.82E9                   -0.5169603471601384      -0.6406005282344941
2.85E9                   -0.5715122337474623      -0.5914110656131439
2.88E9                   -0.6213692500793173      -0.5376015300619272
2.91E9                   -0.6661413584264023      -0.47961891741209994
2.94E9                   -0.7054810961080924      -0.4179432227007396
2.97E9                   -0.7390864038335967      -0.3530833678594599
3.0E9                    -0.7667030618227673      -0.2855728769729026
3.03E9                   -0.7881267081211554      -0.21596533750731672
3.06E9                   -0.8032044177658776      -0.1448296894931676
3.09E9                   -0.8118358263420952      -0.07274538724512977
3.12E9                   -0.8139737867226128      -2.974801188088393E-4
3.15E9                   -0.8096245532365951      0.07192834003356977
3.18E9                   -0.7988474930936791      0.14335067686170883
3.21E9                   -0.7817543302915305      0.21339730595403572
3.24E9                   -0.7585079322409594      0.2815099438667555
3.27E9                   -0.7293206539010023      0.347148866101022
3.3E9                    -0.6944522580148358      0.40979733286738595
3.33E9                   -0.6542074334093624      0.46896578369312786
3.36E9                   -0.6089329360570391      0.5241957645645278
3.39E9                   -0.5590143801739411      0.5750635532792246
3.42E9                   -0.5048727094491711      0.6211834503194734
3.45E9                   -0.44696038158204837     0.6622107043033156
3.48E9                   -0.3857573031975752      0.697844042900586
3.51E9                   -0.3217665572100618      0.7278277824939448
3.54E9                   -0.25550996981727486     0.7519534942691659
3.57E9                   -0.18752356997386954     0.7700612103534001
3.6E9                    -0.11835299809725229     0.7820401623740311
3.63E9                   -0.04854892274663687     0.787829055064013
3.66E9                   0.021337477583579557     0.7874158886574989
3.69E9                   0.09075891494897875      0.7808373539870263
3.72E9                   0.15917622931746964      0.7681778324177807
3.75E9                   0.22606242545774402      0.7495680387648544
3.78E9                   0.29090648096516303      0.7251833497195106
3.81E9                   0.35321690696858143      0.6952418633478951
3.84E9                   0.4125250548223033       0.6600022361080186
3.87E9                   0.46838817566828106      0.6197613402976853
3.9E9                    0.5203922521219422       0.5748517749055313
3.93E9                   0.5681546285665636       0.5256392465502338
3.96E9                   0.6113264642535136       0.47251981818886357
3.99E9                   0.6495950208427601       0.41591700752688354
4.02E9                   0.6826857762664628       0.3562787105725016
4.05E9                   0.7103643364134058       0.2940739310552175
4.08E9                   0.7324381017089714       0.22978931188469592
4.11E9                   0.7487576414203865       0.16392548515614458
4.14E9                   0.7592177348044921       0.09699327622597076
4.17E9                   0.7637580520742233       0.02950981041865508
4.2E9                    0.762363465191903        -0.038005424442238846
4.23E9                   0.7550639941833315       -0.10503450975168403
4.26E9                   0.7419344056535455       -0.17106498113005805
4.29E9                   0.7230934849988675       -0.23559363684205703
4.32E9                   0.6987030026781028       -0.2981302499625325
4.35E9                   0.668966389867444        -0.35820117074513347
4.38E9                   0.6341271325874225       -0.4153528074547464
4.41E9                   0.5944668886405484       -0.46915497135929923
4.44E9                   0.5503033300321439       -0.5192040668625774
4.47E9                   0.5019877152744121       -0.5651261027792738
4.5E9                    0.4499022003591975       -0.6065794971867838
4.53E9                   0.39445690313772364      -0.6432576468562068
4.56E9                   0.3360867421345619       -0.6748912333776675
4.59E9                   0.27524807663653217      -0.7012502413914219
4.62E9                   0.21241517924268083      -0.7221456697191302
4.65E9                   0.14807657406457847      -0.7374309228417851
4.68E9                   0.08273127294371091      -0.7470028769106816
4.71E9                   0.016884938095135027     -0.7508026196153166
4.74E9                   -0.048954005763072676    -0.7488158648904902
4.77E9                   -0.11427829142512583     -0.7410730410400834
4.8E9                    -0.1785857439664584      -0.7276490454168578
4.83E9                   -0.2413832087314466      -0.7086626532614251
4.86E9                   -0.30219044244247617     -0.6842755661238628
4.89E9                   -0.36054392704170835     -0.6546910887387698
4.92E9                   -0.41600055731886765     -0.6201524325722665
4.95E9                   -0.46814114984474425     -0.5809406575349472
4.98E9                   -0.5165737229919477      -0.5373722778256166
5.01E9                   -0.5609365062496623      -0.4897965704169165
5.04E9                   -0.6009006498936401      -0.43859263297997686
5.07E9                   -0.636172621394804       -0.38416624003129407
5.1E9                    -0.6664962893232563      -0.3269465409669006
5.13E9                   -0.6916547051850572      -0.26738263215141395
5.16E9                   -0.711471595006387       -0.20594002045703222
5.19E9                   -0.7258125641369758      -0.143096983393347
5.22E9                   -0.7345860035778847      -0.079340827515441
5.25E9                   -0.7377436713024985      -0.015164055583000647
5.28E9                   -0.7352809162434331      0.04893952839013443
5.31E9                   -0.7272365210065384      0.11247872670385317
5.34E9                   -0.7136921599723605      0.17496880721516267
5.37E9                   -0.6947714934386559      0.23593525625264658
5.4E9                    -0.6706389355674877      0.2949173836099643
5.43E9                   -0.6414981378465379      0.35147175948601517
5.46E9                   -0.6075902211546679      0.4051754809688657
5.49E9                   -0.5691917741361324      0.45562927344553006
5.52E9                   -0.5266126204190485      0.5024604296052592
5.55E9                   -0.4801933476512117      0.5453255781066577
5.58E9                   -0.4303025893200036      0.5839132602998083
5.61E9                   -0.37733405612973103     0.6179462799981001
5.64E9                   -0.32170332589745637     0.6471837816223074
5.67E9                   -0.26384441815703763     0.6714230082841791
5.7E9                    -0.20420619904369117     0.6905006963251509
5.73E9                   -0.14324867888646048     0.7042940780333051
5.76E9                   -0.08143927287412273     0.7127214880736737
5.79E9                   -0.019249088686102492    0.7157425950947496
5.82E9                   0.042850715010223084     0.7133582978578836
5.85E9                   0.10439248083096492      0.7056103275006006
5.88E9                   0.16491551679684166      0.6925805844935038
5.91E9                   0.22396947843286732      0.6743902189251447
5.94E9                   0.2811176664526171       0.6511984469280638
5.97E9                   0.33594022230257875      0.6232010908740157
6.0E9                    0.38803719002898945      0.5906288362836999
