% Model:              three_layers reality at 0.1mm.mph
% Version:            COMSOL 5.6.0.280
% Date:               Feb 26 2022, 13:54
% Table:              表格 1 - 全局计算 1
% freq (Hz)              real(emw.S11) (1)        imag(emw.S11) (1)
300000000                0.5377234566190364       -0.7402707534894901
330000000                0.4672585692241647       -0.7848717768157061
360000000                0.39324673155589207      -0.8229291838453888
390000000                0.31626785822257397      -0.8541514757259002
420000000                0.23693167100662685      -0.8782996092507114
450000000                0.1558715199430262       -0.895189870575408
480000000                0.07373837382456543      -0.9046961141519507
510000000                -0.008805118806202827    -0.906751407221994
540000000                -0.09109054376567656     -0.9013491002634236
570000000                -0.172449615372045       -0.8885433314681088
600000000                -0.2522200403028152      -0.8684489693294277
630000000                -0.3297513206420808      -0.8412409960580685
660000000                -0.4044104620991689      -0.8071533359244216
690000000                -0.47558754334745856     -0.7664771358118676
720000000                -0.5427011004384464      -0.7195585094667174
750000000                -0.6052032785147872      -0.6667957612749478
780000000                -0.6625847008381807      -0.6086361115013305
810000000                -0.7143790070854021      -0.545571949911629
840000000                -0.7601670139809633      -0.47813665053790005
870000000                -0.7995804538999892      -0.4068999860628595
900000000                -0.8323052511704749      -0.332463185045257
930000000                -0.8580842997203718      -0.2554536807064242
960000000                -0.8767197113999347      -0.17651960367229452
990000000                -0.8880745100404295      -0.09632407476495947
1020000000               -0.8920737525004606      -0.015539357289199751
1050000000               -0.8887050651707744      0.06515907071329716
1080000000               -0.8780185910823932      0.14509846180878605
1110000000               -0.8601263501552939      0.2236147002311582
1140000000               -0.8352010221833942      0.30005809707687886
1170000000               -0.8034741691023792      0.37379902033799883
1200000000               -0.7652339197008682      0.4442333026580461
1230000000               -0.7208221462346469      0.510787373258143
1260000000               -0.6706311677944529      0.5729230650776257
1290000000               -0.6151000205123232      0.630142052330659
1320000000               -0.5547103387478418      0.6819898795626813
1350000000               -0.4899818949036199      0.7280595488230778
1380000000               -0.4214678480732544      0.7679946376772421
1410000000               -0.34974975372640194     0.8014919267630423
1440000000               -0.2754323872512817      0.8283035221006241
1470000000               -0.19913843478618498     0.8482384630903225
1500000000               -0.12150310376914426     0.8611638133335175
1530000000               -0.04316870477126766     0.86700523673613
1560000000               0.03522074591577784      0.8657470666967655
1590000000               0.11302485567164809      0.857431880879628
1620000000               0.18961207261543012      0.8421595983364378
1650000000               0.26436474892613265      0.820086119489689
1680000000               0.33668401273690735      0.791421532670679
1710000000               0.4059944140373567       0.7564279136158428
1740000000               0.4717483140340839       0.7154167464453384
1770000000               0.5334299907559148       0.6687459963778324
1800000000               0.5905594375293852       0.6168168655859003
1830000000               0.6426958341942637       0.5600702645451121
1860000000               0.6894406746393238       0.4989830315037467
1890000000               0.730440537123522        0.4340639331025415
1920000000               0.7653894872953928       0.36584947883814534
1950000000               0.7940311067547342       0.29489958169599223
1980000000               0.8161601429546764       0.2217930966159942
2010000000               0.831623779313781        0.14712326715371454
2040000000               0.8403225272525848       0.07149310895508679
2070000000               0.8422107446041356       -0.004489244470083745
2100000000               0.8372967865831367       -0.08021521244556563
2130000000               0.8256427952170124       -0.1550804397551545
2.16E9                   0.8073641280967035       -0.22848946494519617
2.19E9                   0.7826284139066921       -0.2998603855142756
2.22E9                   0.7516541969178268       -0.3686295206369354
2.25E9                   0.7147090974629923       -0.4342560494174597
2.28E9                   0.6721073894419782       -0.4962265390371056
2.31E9                   0.6242069231236912       -0.554059173064672
2.34E9                   0.571405457223651        -0.6073073957922539
2.37E9                   0.5141366982590091       -0.6555627275757625
2.4E9                    0.45286652231353774      -0.6984567744692898
2.43E9                   0.38808973650507145      -0.7356628437410647
2.46E9                   0.32032729686487227      -0.7668977440768063
2.49E9                   0.25012347558669923      -0.7919240764152233
2.52E9                   0.17804244147102433      -0.8105528283161245
2.55E9                   0.10466405582452705      -0.822645797225777
2.58E9                   0.03057904652952033      -0.8281174374342117
2.61E9                   -0.04361613419925945     -0.8269359676881436
2.64E9                   -0.11732451513961735     -0.819123770147983
2.67E9                   -0.18995373368437518     -0.8047571844395911
2.7E9                    -0.26092103012909185     -0.7839657921257688
2.73E9                   -0.3296580916863233      -0.7569312527191698
2.76E9                   -0.39561573709505116     -0.7238857230741023
2.79E9                   -0.4582684268886986      -0.6851098758000193
2.82E9                   -0.5171185761469956      -0.6409305267719764
2.85E9                   -0.5717006398687231      -0.5917178827645894
2.88E9                   -0.6215849374302131      -0.5378824241463541
2.91E9                   -0.6663811811963468      -0.47987144269788634
2.94E9                   -0.705741674841331       -0.41816525995289777
2.97E9                   -0.7393641489603744      -0.35327315636767076
3.0E9                    -0.7669942044432344      -0.285729046199227
3.03E9                   -0.7884273378899733      -0.21608693679192284
3.06E9                   -0.8035105276043573      -0.14491621452559453
3.09E9                   -0.8121433637549338      -0.07279680189474189
3.12E9                   -0.8142787113465784      -3.142323641673598E-4
3.15E9                   -0.8099229001850254      0.07194530948526952
3.18E9                   -0.7991354414948276      0.14339993496303552
3.21E9                   -0.7820282760965109      0.21347693832412268
3.24E9                   -0.7587645639600687      0.28161757856386227
3.27E9                   -0.7295570292718647      0.347281712227566
3.3E9                    -0.6946658787244535      0.40995223619052407
3.33E9                   -0.6543963137626255      0.4691393012873743
3.36E9                   -0.609095660059042       0.5243842596649323
3.39E9                   -0.5591501400361162      0.5752633099886341
3.42E9                   -0.5049813171057412      0.6213908055432208
3.45E9                   -0.44704224442387946     0.6624221905632983
3.48E9                   -0.38581335622149365     0.6980565312887926
3.51E9                   -0.3217981468775111      0.7280386104241545
3.54E9                   -0.25551869098040136     0.7521605587112075
3.57E9                   -0.18751106538750353     0.7702630059762161
3.6E9                    -0.11832073999741316     0.7822357464478633
3.63E9                   -0.04849800492601606     0.7880179284676259
3.66E9                   0.02140650279640255      0.787597794362823
3.69E9                   0.09084612024217834      0.7810120094369775
3.72E9                   0.15928228842610626      0.7683446274154621
3.75E9                   0.2261884673095665       0.7497257426161222
3.78E9                   0.2910538263271281       0.7253298772882
3.81E9                   0.3533867132688908       0.695374147102456
3.84E9                   0.4127179146985272       0.6601162388752936
3.87E9                   0.4686037280749538       0.6198522222404335
3.9E9                    0.520628867548219        0.5749142015451141
3.93E9                   0.5684092193273367       0.525667798641637
3.96E9                   0.6115944487319361       0.47250944588845
3.99E9                   0.6498704423602369       0.4158634659376964
4.02E9                   0.6829615508581889       0.35617892255844447
4.05E9                   0.7106325861807392       0.2939262424266648
4.08E9                   0.7326905247374942       0.2295936275096545
4.11E9                   0.7489858749375362       0.16368329508879542
4.14E9                   0.7594136810166088       0.0967075945779704
4.17E9                   0.7639141512244824       0.029185054760385937
4.2E9                    0.7624729135697035       -0.03836358734049883
4.23E9                   0.7551209137354583       -0.10541933250577773
4.26E9                   0.7419339759020386       -0.1714688074521278
4.29E9                   0.7230320478283702       -0.23600807232454787
4.32E9                   0.6985781476790955       -0.29854633309836276
4.35E9                   0.668777023909303        -0.3586095477648728
4.38E9                   0.6338735334706755       -0.4157439146701283
4.41E9                   0.5941507398998954       -0.46951922721455325
4.44E9                   0.5499277325299493       -0.5195320736098759
4.47E9                   0.5015571709872452       -0.5654088553556068
4.5E9                    0.44942256453010754      -0.6068085947723905
4.53E9                   0.39393530245537267      -0.6434255010586343
4.56E9                   0.3355314585254398       -0.6749912661699661
4.59E9                   0.27466839842943197      -0.7012770659894638
4.62E9                   0.211821223317175        -0.7220952486232725
4.65E9                   0.14747908371203453      -0.7373006991138676
4.68E9                   0.08214139577916378      -0.7467918768037185
4.71E9                   0.016313986640249214     -0.7505115258233294
4.74E9                   -0.04949481050224112     -0.7484470589203662
4.77E9                   -0.11477809455131692     -0.7406306101397935
4.8E9                    -0.17903434922925127     -0.7271387449229181
4.83E9                   -0.24177138388031186     -0.7080918111841842
4.86E9                   -0.3025102239662328      -0.6836529157899612
4.89E9                   -0.3607889013932864      -0.6540265193857286
4.92E9                   -0.4161660882328111      -0.6194566574839633
4.95E9                   -0.4682245188167271      -0.5802248134326009
4.98E9                   -0.516574154954132       -0.5366474847537912
5.01E9                   -0.5608550653377753      -0.4890734943121129
5.04E9                   -0.6007400094071862      -0.43788109911183315
5.07E9                   -0.6359367334521437      -0.3834749413477718
5.1E9                    -0.6661899973274977      -0.3262828705781395
5.13E9                   -0.6912833503153847      -0.26675264650346725
5.16E9                   -0.7110406627692696      -0.20534851625396194
5.19E9                   -0.7253274002134598      -0.14254765477559359
5.22E9                   -0.7340516062264456      -0.07883646674716238
5.25E9                   -0.7371645502016794      -0.014706770541949042
5.28E9                   -0.7346610023135872      0.049348089656270334
5.31E9                   -0.7265791197075381      0.11283714036494277
5.34E9                   -0.7129999555716694      0.1752756206215454
5.37E9                   -0.6940466237438505      0.23618872190191392
5.4E9                    -0.6698831573100835      0.2951152024734138
5.43E9                   -0.6407130902595567      0.3516108719352098
5.46E9                   -0.6067777737297306      0.4052519491641291
5.49E9                   -0.5683544221741573      0.4556382912625452
5.52E9                   -0.5257538763953067      0.5023964772708063
5.55E9                   -0.4793180720154904      0.5451827143068886
5.58E9                   -0.42941721195596366     0.5836855207812406
5.61E9                   -0.37644665706909913     0.6176281340565861
5.64E9                   -0.3208235674423538      0.6467705897390755
5.67E9                   -0.26298334535006945     0.6709114276832896
5.7E9                    -0.2033759460048552      0.6898889961758665
5.73E9                   -0.1424621288669595      0.7035823495854329
5.76E9                   -0.08070971592942247     0.7119117604672194
5.79E9                   -0.018589903290851417    0.7148388859380137
5.82E9                   0.04342635449218957      0.7123666314637511
5.85E9                   0.10487188949286477      0.7045387416598796
5.88E9                   0.16528680354571998      0.6914391250344217
5.91E9                   0.2242218878450123       0.673190900550559
5.94E9                   0.2812419579258851       0.6499551476750195
5.97E9                   0.33592906521927335      0.6219293493490449
6.0E9                    0.38788553694378103      0.5893455336181863
