% Model:              three_layers reality at 0.1mm.mph
% Version:            COMSOL 5.6.0.280
% Date:               Mar 10 2022, 19:29
% Table:              表格 1 - 全局计算 1
% freq (Hz)              real(emw.S11) (1)        imag(emw.S11) (1)
300000000                0.4196336073688546       -0.8070783504372323
330000000                0.33168443748897974      -0.8441218862443454
360000000                0.2407310733285165       -0.8718237232366125
390000000                0.1477227224727807       -0.8899415399455801
420000000                0.05363628932280218      -0.8983304091750212
450000000                -0.040536208886748075    -0.8969462016167467
480000000                -0.13379985907032152     -0.8858472273750423
510000000                -0.2251687346507051      -0.8651943279084263
540000000                -0.3136774178151538      -0.8352495558346984
570000000                -0.39839210251479323     -0.7963735442712466
600000000                -0.47842119920602166     -0.749021651934723
630000000                -0.5529253539418155      -0.6937389657990187
660000000                -0.6211267898773989      -0.6311542452826049
690000000                -0.6823178817935983      -0.5619728964190308
720000000                -0.735868877952575       -0.4869690715949627
750000000                -0.7812346914339726      -0.40697699691477135
780000000                -0.8179606918009409      -0.322881636377349
810000000                -0.8456874387577629      -0.23560880801726652
840000000                -0.864154311401343       -0.14611487199632708
870000000                -0.873201999115035       -0.05537611504871623
900000000                -0.8727738338348785      0.035622042842693755
930000000                -0.8629159568061712      0.12589589152706532
960000000                -0.8437763269550591      0.2144741975481923
990000000                -0.8156025915936079      0.30040876954719553
1020000000               -0.778738853480329       0.38278470211392257
1050000000               -0.7336213811596176      0.46073018199532956
1080000000               -0.6807733213987222      0.5334257480437453
1110000000               -0.6207984837793199      0.6001129037866955
1140000000               -0.5543742776065241      0.6601019905138367
1170000000               -0.48224389004759066     0.7127792390911454
1200000000               -0.40520780221505187     0.7576129292902758
1230000000               -0.32411474603929485     0.794158597141229
1260000000               -0.23985220968394405     0.8220632427724021
1290000000               -0.1533366026636349      0.8410685035105843
1320000000               -0.06550319386220078     0.8510127694895889
1350000000               0.02270406378027037      0.8518322314072106
1380000000               0.11034270894812029      0.8435608622815185
1410000000               0.19648183695022114      0.8263293469181218
1440000000               0.2802119463611891       0.8003629841956048
1470000000               0.36065446412484636      0.7659785980247361
1500000000               0.4369708510469858       0.7235805029811446
1530000000               0.5083711963064641       0.6736555798541675
1560000000               0.5741222165560753       0.6167675248398825
1590000000               0.6335545830421275       0.5535503436833753
1620000000               0.6860695087796533       0.4847011685856498
1650000000               0.7311445365491682       0.41097248147217513
1680000000               0.7683384780035205       0.33316383170337277
1710000000               0.7972954636623467       0.25211314013297786
1740000000               0.8177480735214879       0.16868768393250766
1770000000               0.829519527978993        0.08377485832196895
1800000000               0.832524928859591        -0.0017271880307179598
1830000000               0.8267715504909557       -0.08691894774108418
1860000000               0.8123581908567801       -0.17090888475914884
1890000000               0.7894736029101388       -0.2528226079725444
1920000000               0.758394035949144        -0.33181180074319433
1950000000               0.7194799263699182       -0.4070628248761686
1980000000               0.673171785790077        -0.4778049256203157
2010000000               0.6199853414875407       -0.5433179754060816
2040000000               0.5605059881411227       -0.6029397080479555
2070000000               0.49538260807382173      -0.6560724129629044
2100000000               0.4253208055074817       -0.7021890789786062
2130000000               0.3510755725587753       -0.7408389952856235
2.16E9                   0.27344335400748626      -0.7716528220096293
2.19E9                   0.1932534024340205       -0.7943471117335077
2.22E9                   0.1113582314688177       -0.8087281596995903
2.25E9                   0.028622941557036975     -0.8146948451689919
2.28E9                   -0.05408666652321923     -0.812239804200183
2.31E9                   -0.13591680060427827     -0.8014479866672147
2.34E9                   -0.21603797810245615     -0.7824917552278173
2.37E9                   -0.2936548712298627      -0.7556226140077231
2.4E9                    -0.3680117512098428      -0.7211613656092433
2.43E9                   -0.43839331522871855     -0.6794898942846059
2.46E9                   -0.5041233136737088      -0.6310472654926235
2.49E9                   -0.5645647791978806      -0.5763301850209109
2.52E9                   -0.6191243831877422      -0.5158950800123094
2.55E9                   -0.6672606407028598      -0.45035840341119227
2.58E9                   -0.7084937081660986      -0.3803932958994301
2.61E9                   -0.7424144108776235      -0.30672274911276176
2.64E9                   -0.7686911792670877      -0.23011051050283549
2.67E9                   -0.787074643236114       -0.15135102597982034
2.7E9                    -0.7974002109497769      -0.07125927996955007
2.73E9                   -0.7995890901376577      0.009339058229762602
2.76E9                   -0.7936481238215904      0.08961705556628546
2.79E9                   -0.7796686793271059      0.16875550112234242
2.82E9                   -0.7578247238623035      0.24595148273040987
2.85E9                   -0.7283701562606635      0.32042656810833203
2.88E9                   -0.69163543392506        0.3914345817939516
2.91E9                   -0.6480235242018489      0.45826894907699467
2.94E9                   -0.5980052106584132      0.5202695646653424
2.97E9                   -0.5421137912841697      0.5768291362259749
3.0E9                    -0.4809392138604798      0.6273989508426638
3.03E9                   -0.41512170237046764     0.6714940136875513
3.06E9                   -0.345344936048018       0.708697512680589
3.09E9                   -0.27232884925010853     0.7386645692809499
3.12E9                   -0.19682212538900573     0.7611252435123308
3.15E9                   -0.11959446126178559     0.7758867702743802
3.18E9                   -0.041428679088393316    0.7828350132624853
3.21E9                   0.03688723752047931      0.7819351315199085
3.24E9                   0.11456811035562993      0.7732314610279738
3.27E9                   0.19083946680416838      0.756846618980425
3.3E9                    0.2649453077501111       0.7329798411462581
3.33E9                   0.3361556796968961       0.701904563309844
3.36E9                   0.40377398683858595      0.6639652571409882
3.39E9                   0.46714397459478474      0.6195735306241373
3.42E9                   0.5256563079852711       0.5692035055745915
3.45E9                   0.5787546576406924       0.5133864919641201
3.48E9                   0.6259411951031044       0.45270499284112714
3.51E9                   0.6667813910056375       0.38778609567177846
3.54E9                   0.7009080092464424       0.31929433496109216
3.57E9                   0.7280242013169875       0.24792414405844682
3.6E9                    0.7479056302907229       0.17439204483349446
3.63E9                   0.7604015920345404       0.09942874550323821
3.66E9                   0.7654351467281852       0.023771323620353463
3.69E9                   0.7630023188833239       -0.05184433869476347
3.72E9                   0.753170462036104        -0.1266907229860406
3.75E9                   0.7360759131550587       -0.2000553320766164
3.78E9                   0.7119210839825091       -0.27124675728720815
3.81E9                   0.6809711542924127       -0.3396001162492699
3.84E9                   0.6435505414751792       -0.40448187515580375
3.87E9                   0.6000393098944493       -0.4652941349047588
3.9E9                    0.5508696381375365       -0.5214785277321917
3.93E9                   0.4965223787535591       -0.5725199155690532
3.96E9                   0.4375236381301202       -0.6179500783975826
3.99E9                   0.37444120615196436      -0.6573515180497048
4.02E9                   0.3078806115322703       -0.6903613925505416
4.05E9                   0.23848059100048433      -0.7166754708226846
4.08E9                   0.16690783565301645      -0.7360518970602924
4.11E9                   0.09385099057055513      -0.7483145070320751
4.14E9                   0.02001399915656901      -0.7533554532597821
4.17E9                   -0.053891029101849425    -0.7511369602801946
4.2E9                    -0.12715120683258138     -0.7416921208315754
4.23E9                   -0.1990602971650498      -0.7251247321878663
4.26E9                   -0.26892600678175765     -0.7016082379749081
4.29E9                   -0.3360770254619214      -0.6713838735745701
4.32E9                   -0.39986974827215516     -0.6347581129675326
4.35E9                   -0.4596946532434461      -0.5920994914438545
4.38E9                   -0.5149823196173486      -0.5438348472368598
4.41E9                   -0.5652090628636397      -0.4904450000632104
4.44E9                   -0.6099021418133863      -0.4324598748277085
4.47E9                   -0.6486444716863216      -0.37045308585072345
4.5E9                    -0.6810787628616638      -0.30503601691580856
4.53E9                   -0.706911003210104       -0.23685145865874163
4.56E9                   -0.7259132121520337      -0.16656689101816521
4.59E9                   -0.7379254158177007      -0.09486751964872255
4.62E9                   -0.7428568220328778      -0.02244918706199603
4.65E9                   -0.7406862070267318      0.049988721452217
4.68E9                   -0.7314615564240925      0.12175027261333843
4.71E9                   -0.7152990229044534      0.19214980441096502
4.74E9                   -0.692381264826914       0.26051852761044836
4.77E9                   -0.6629552123917959      0.32621089466339775
4.8E9                    -0.6273292773919117      0.38861073056349177
4.83E9                   -0.5858699933618178      0.4471371056844463
4.86E9                   -0.5389980599531534      0.5012498977186177
4.89E9                   -0.4871837773166873      0.5504549518147618
4.92E9                   -0.43094189162767604     0.5943087207864254
4.95E9                   -0.3708259215298368      0.6324222620499815
4.98E9                   -0.3074220837914897      0.6644644881492127
5.01E9                   -0.24134297251777373     0.6901646100457931
5.04E9                   -0.17322116077234784     0.7093137689247432
5.07E9                   -0.10370288099388283     0.7217659122539765
5.1E9                    -0.03344190017014892     0.7274380198016984
5.13E9                   0.036906356644068695     0.7263098103304064
5.16E9                   0.10669044973694888      0.7184230477362762
5.19E9                   0.17526840193078075      0.7038805148880969
5.22E9                   0.24201308696967666      0.6828446499024681
5.25E9                   0.30631756647069575      0.6555357743772228
5.28E9                   0.3676003370071252       0.6222298198127614
5.31E9                   0.42531037416029244      0.5832554930031107
5.34E9                   0.47893182638639265      0.538990899103971
5.37E9                   0.5279882371246316       0.4898597237350858
5.4E9                    0.5720462459783612       0.4363271224570143
5.43E9                   0.6107188034943718       0.3788954575832791
5.46E9                   0.6436679927201627       0.31809996696081316
5.49E9                   0.6706075643016711       0.25450437430947365
5.52E9                   0.6913052618614235       0.18869638522753207
5.55E9                   0.7055849563931041       0.1212829764610184
5.58E9                   0.713328542055697        0.05288538479043129
5.61E9                   0.7144774874844892       -0.01586626699319872
5.64E9                   0.7090338986169947       -0.08433871335419392
5.67E9                   0.6970609403840108       -0.15190159313868817
5.7E9                    0.6786824930631827       -0.21793366194326805
5.73E9                   0.6540819858045958       -0.28182897691226066
5.76E9                   0.6235004419785849       -0.34300284946534726
5.79E9                   0.5872338579581643       -0.40089740560350356
5.82E9                   0.5456300814127036       -0.4549866814274774
5.85E9                   0.4990853360336372       -0.5047812753269394
5.88E9                   0.4480404694601834       -0.5498326338371756
5.91E9                   0.3929769196467284       -0.5897370439196176
5.94E9                   0.33441234278380527      -0.624139352552664
5.97E9                   0.2728958407717812       -0.6527363684484769
6.0E9                    0.20900275963611803      -0.6752798507786566
