% Model:              three_layers reality at 0.1mm.mph
% Version:            COMSOL 5.6.0.280
% Date:               Mar 10 2022, 19:26
% Table:              表格 1 - 全局计算 1
% freq (Hz)              real(emw.S11) (1)        imag(emw.S11) (1)
300000000                0.42905895283994816      -0.825441445164496
330000000                0.33844265998036377      -0.8638163802662707
360000000                0.24468866541739978      -0.8924318222063363
390000000                0.14880468676380154      -0.9110503127646447
420000000                0.05182150633099134      -0.9195348663131876
450000000                -0.04521847462437254     -0.9178526315778003
480000000                -0.14127293195635798     -0.906076780518458
510000000                -0.2353113641328256      -0.8843867655343148
540000000                -0.32632671405415703     -0.8530670573399434
570000000                -0.4133467101822267      -0.812504460797201
600000000                -0.4954447838809717      -0.7631841001277614
630000000                -0.5717504295071537      -0.7056841648043968
660000000                -0.641458884479964       -0.6406695111739732
690000000                -0.7038400163876397      -0.568884220502543
720000000                -0.7582463151975024      -0.491143221018449
750000000                -0.8041199003929322      -0.40832308838343273
780000000                -0.8409984652139935      -0.32135214598711814
810000000                -0.8685200939802418      -0.23119999198045355
840000000                -0.886426902342681       -0.13886658511094627
870000000                -0.8945674652229725      -0.04537102470048803
900000000                -0.8928980122974842      0.04825983802146324
930000000                -0.8814823860797356      0.14100281933491726
960000000                -0.8604907729643219      0.23184971704997046
990000000                -0.8301972324813317      0.31981838553432296
1020000000               -0.7909760644530929      0.40396344320200006
1050000000               -0.7432970674608441      0.48338648983283233
1080000000               -0.6877197549438361      0.5572457186966345
1110000000               -0.6248866068017116      0.6247648179661893
1140000000               -0.5555154452278706      0.6852410653478868
1170000000               -0.4803910323273433      0.7380525318067678
1200000000               -0.40035599511811226     0.7826643218017146
1230000000               -0.31630118954290565     0.8186337904100016
1260000000               -0.22915561995014802     0.8456146906924688
1290000000               -0.13987603347950925     0.8633602181552343
1320000000               -0.04943631045281691     0.8717249324995399
1350000000               0.04118322808035764      0.8706655501872907
1380000000               0.13100647602243518      0.8602406143800132
1410000000               0.21907204400164684      0.840609061326627
1440000000               0.30444349458389425      0.8120277142701865
1470000000               0.3862192030007357       0.7748477471860793
1500000000               0.4635417421367901       0.7295101711380331
1530000000               0.535606697579408        0.6765404055358961
1560000000               0.6016708265386868       0.6165420052227883
1590000000               0.661059483164226        0.5501896219203649
1620000000               0.7131732421897792       0.4782212850096573
1650000000               0.7574936624398831       0.4014300922300169
1680000000               0.7935881418672924       0.32065540525229247
1710000000               0.821113826244989        0.23677364837268422
1740000000               0.839820544004298        0.15068881101039325
1770000000               0.8495527505183891       0.06332275570108535
1800000000               0.8502504756573743       -0.024394566402659097
1830000000               0.8419492792104191       -0.11153489165578977
1860000000               0.8247792293069104       -0.19718131284391655
1890000000               0.7989629294660543       -0.2804377457387269
1920000000               0.7648126301229166       -0.3604381029805333
1950000000               0.7227264702885812       -0.43635509190962396
1980000000               0.6731839038475592       -0.5074085623129865
2010000000               0.6167403722784446       -0.5728733418980749
2040000000               0.5540212893506367       -0.6320865133631441
2070000000               0.4857154011000077       -0.684454106250549
2100000000               0.41256757124150223      -0.7294571991690706
2130000000               0.33537101122467416      -0.7666574483162271
2.16E9                   0.2549589181511724       -0.7957020644580584
2.19E9                   0.1721953997399968       -0.8163282280126183
2.22E9                   0.08796547084468341      -0.8283668200466198
2.25E9                   0.0031638645259999265    -0.8317451119161334
2.28E9                   -0.08131745269955425     -0.8264877006425535
2.31E9                   -0.16460265908548344     -0.8127146526579273
2.34E9                   -0.24584502604738417     -0.7906359160248811
2.37E9                   -0.324237201606004       -0.760542061814764
2.4E9                    -0.39901667293525495     -0.722793287965004
2.43E9                   -0.4694661163813346      -0.6778101820369979
2.46E9                   -0.534911233512686       -0.6260692341453135
2.49E9                   -0.5947202359466551      -0.568103222764082
2.52E9                   -0.6483077998184852      -0.5045035311642855
2.55E9                   -0.6951432582291655      -0.4359206760692579
2.58E9                   -0.7347606109602713      -0.3630609667022797
2.61E9                   -0.7667677757918565      -0.28667940507513484
2.64E9                   -0.7908536228022339      -0.20757015508720067
2.67E9                   -0.806792500922255       -0.1265559882698895
2.7E9                    -0.8144466040162452      -0.04447764751594212
2.73E9                   -0.8137666757726031      0.037816420249913885
2.76E9                   -0.804791463582506       0.11947982254696009
2.79E9                   -0.787646188107114       0.1996774691475971
2.82E9                   -0.7625401798845082      0.2775943413181584
2.85E9                   -0.7297637638205161      0.3524438031848
2.88E9                   -0.6896844378477774      0.4234754521966562
2.91E9                   -0.642742380077008       0.48998248452735854
2.94E9                   -0.5894453190504386      0.5513085365465644
2.97E9                   -0.5303628077820487      0.6068539554213599
3.0E9                    -0.4661199503851478      0.6560814493726767
3.03E9                   -0.3973906386087272      0.6985210693966861
3.06E9                   -0.3248903632457745      0.7337744788166316
3.09E9                   -0.2493686719352266      0.7615184735848994
3.12E9                   -0.17160134960946466     0.7815077246215174
3.15E9                   -0.0923824006787081      0.7935767227065996
3.18E9                   -0.012515912624474268    0.7976409159999025
3.21E9                   0.06719212103547854      0.793697039246552
3.24E9                   0.14594194399496382      0.7818226411288027
3.27E9                   0.2229480767209763       0.7621748213298897
3.3E9                    0.2974471867737469       0.7349881912720306
3.33E9                   0.3687057267079224       0.7005720725263821
3.36E9                   0.436027275848034        0.6593069455993711
3.39E9                   0.49875951745012853      0.6116401610444039
3.42E9                   0.5563007741131081       0.5580809269218927
3.45E9                   0.6081060127816635       0.4991945939234601
3.48E9                   0.6536922185599011       0.4355962743461344
3.51E9                   0.6926430279409979       0.36794385440251776
3.54E9                   0.724612511477626        0.296930490448615
3.57E9                   0.7493280080694746       0.2232767147434244
3.6E9                    0.7665919403713805       0.14772230908829964
3.63E9                   0.7762825819479325       0.07101812728255874
3.66E9                   0.7783537958096567       -0.00608194640349331
3.69E9                   0.7728338122107825       -0.08282872696741489
3.72E9                   0.7598231540308739       -0.1584849964505977
3.75E9                   0.7394918483674865       -0.2323321929298448
3.78E9                   0.7120760858671169       -0.3036764415278886
3.81E9                   0.6778745072448594       -0.37185389274267777
3.84E9                   0.6372443051160105       -0.4362353905040216
3.87E9                   0.5905973158349588       -0.4962305627931931
3.9E9                    0.538396225739028        -0.5512914990116807
3.93E9                   0.48115092516457203      -0.6009162249221349
3.96E9                   0.4194149282797156       -0.6446521809106812
3.99E9                   0.35378167191288257      -0.6820998401561328
4.02E9                   0.2848804500706614       -0.7129164835918983
4.05E9                   0.21337175562620275      -0.7368200138010107
4.08E9                   0.1399418824762833       -0.7535925828559731
4.11E9                   0.06529676317022641      -0.7630837598526092
4.14E9                   -0.009844859563486708    -0.7652129810759145
4.17E9                   -0.08475873637640402     -0.7599710956853887
4.2E9                    -0.15872265538115402     -0.7474209163513189
4.23E9                   -0.231023998793824       -0.7276967787725335
4.26E9                   -0.3009671285354605      -0.7010031840681983
4.29E9                   -0.367880479164862       -0.6676126320756895
4.32E9                   -0.43112329509762015     -0.6278627521663468
4.35E9                   -0.4900919879769095      -0.5821528122654599
4.38E9                   -0.5442261029503392      -0.5309396525026975
4.41E9                   -0.5930138726736345      -0.47473306285930134
4.44E9                   -0.6359973154305942      -0.41409061360096616
4.47E9                   -0.6727768106663161      -0.3496119548380633
4.5E9                    -0.7030150705580812      -0.28193262268131314
4.53E9                   -0.7264404243039713      -0.21171741718241655
4.56E9                   -0.7428493431161318      -0.1396534447381689
4.59E9                   -0.7521081567142761      -0.06644293959685568
4.62E9                   -0.7541539434101874      0.007204009017355928
4.65E9                   -0.7489946110298882      0.08057669928070661
4.68E9                   -0.736708218075634       0.15297092110968483
4.71E9                   -0.717441604859719       0.22369584577454568
4.74E9                   -0.6914084054068366      0.2920806605227502
4.77E9                   -0.6588864911018096      0.35748093712096707
4.8E9                    -0.6202148639294414      0.41928473266026256
4.83E9                   -0.575789985757171       0.4769184051284036
4.86E9                   -0.5260615164745607      0.5298520907854289
4.89E9                   -0.47152744685621617     0.5776047500245126
4.92E9                   -0.412728649819214       0.6197486599621347
4.95E9                   -0.35024292536847335     0.6559132272022448
4.98E9                   -0.28467866550001963     0.685788016550996
5.01E9                   -0.21666830255948089     0.7091249371203819
5.04E9                   -0.1468617185528853      0.7257395875862889
5.07E9                   -0.0759197780868771      0.7355118257684204
5.1E9                    -0.004508103243196971    0.738385679767239
5.13E9                   0.06670885850405561      0.7343687428806994
5.16E9                   0.1370734954695081       0.7235311799690711
5.19E9                   0.205940498099854        0.7060044176783696
5.22E9                   0.27268221638723633      0.6819795120884378
5.25E9                   0.33669395023873805      0.6517051183946593
5.28E9                   0.3973991335823295       0.6154849636748683
5.31E9                   0.45425429418540253      0.5736747617244795
5.34E9                   0.5067536365642227       0.52667859213255
5.37E9                   0.5544331241523894       0.4749448527412464
5.4E9                    0.5968740146503366       0.41896194267402315
5.43E9                   0.6337058909823118       0.35925382215043933
5.46E9                   0.6646092911317535       0.2963755350240799
5.49E9                   0.6893180526481327       0.23090869982270654
5.52E9                   0.7076214540330327       0.16345690606023905
5.55E9                   0.7193661725931236       0.09464091502630466
5.58E9                   0.7244580076604067       0.025093564348560804
5.61E9                   0.7228632567686852       -0.04454569012748644
5.64E9                   0.7146095929725853       -0.11363660116815227
5.67E9                   0.6997862837876974       -0.18154425556650114
5.7E9                    0.6785436237835605       -0.24764535104964605
5.73E9                   0.651091524628475        -0.3113344216803819
5.76E9                   0.6176973040351627       -0.37202979853443724
5.79E9                   0.5786828059981692       -0.4291791411155796
5.82E9                   0.5344210295625026       -0.48226446927388134
5.85E9                   0.48533242074270344      -0.5308067242299019
5.88E9                   0.4318809063494845       -0.5743699445630508
5.91E9                   0.3745696620380763       -0.6125651365359616
5.94E9                   0.3139365526205083       -0.6450538619190919
5.97E9                   0.2505491785841093       -0.6715514962504944
6.0E9                    0.18499949908680496      -0.6918300582088007
