% Model:              three_layers reality at 0.1mm.mph
% Version:            COMSOL 5.6.0.280
% Date:               Feb 23 2022, 15:47
% Table:              表格 1 - 全局计算 1
% freq (Hz)              real(emw.S11) (1)        imag(emw.S11) (1)
300000000                0.5949453087200748       -0.7322635089134781
330000000                0.5286449936998919       -0.7805870758293532
360000000                0.4585409740308082       -0.8229985559850359
390000000                0.38514508588331453      -0.8591945200942107
420000000                0.30899637641271627      -0.8889165844317948
450000000                0.2306563248683535       -0.9119537057211549
480000000                0.15070413038358765      -0.9281440262145161
510000000                0.06973201222770485      -0.9373762868761173
540000000                -0.011659493398914124    -0.9395908162392621
570000000                -0.09286623850740075     -0.9347800993186969
600000000                -0.17328515462293198     -0.9229889292999043
630000000                -0.25231890939691565     -0.9043141454983895
660000000                -0.32938050167323496     -0.8789039621664053
690000000                -0.40389776586113046     -0.8469568949266368
720000000                -0.4753177552482106      -0.8087202938841985
750000000                -0.5431109730116485      -0.764488495056629
780000000                -0.6067754195486655      -0.7146006046937393
810000000                -0.6658404257927867      -0.6594379336275145
840000000                -0.7198702430705634      -0.5994211016426036
870000000                -0.7684673614727663      -0.5350068345373215
900000000                -0.8112755306239825      -0.4666844791639843
930000000                -0.8479824590960732      -0.39497226381858086
960000000                -0.8783221707698182      -0.32041333402106525
990000000                -0.9020769995580873      -0.2435715952072943
1020000000               -0.919079206640034       -0.1650273956606969
1050000000               -0.9292122074206466      -0.08537308460042187
1080000000               -0.9324113988258809      -0.005208481074662406
1110000000               -0.9286645807889271      0.07486370989345567
1140000000               -0.9180119692244404      0.15424249658738443
1170000000               -0.9005458012742067      0.2323331788688603
1200000000               -0.8764095370237062      0.30855186820684943
1230000000               -0.8457966652581768      0.3823299137757909
1260000000               -0.8089491241984832      0.4531181992374587
1290000000               -0.7661553512111944      0.5203912766045574
1320000000               -0.717747978670036       0.5836513046759434
1350000000               -0.6641011958885616      0.6424317617506313
1380000000               -0.605627799626952       0.6963009043596433
1410000000               -0.5427759582129451      0.7448649459306402
1440000000               -0.47602571630494        0.7877709320289008
1470000000               -0.40588526919792306     0.8247092914708951
1500000000               -0.3328870373483608      0.8554160453035928
1530000000               -0.25758357273630467     0.8796746588620353
1560000000               -0.1805433299351883      0.8973175248964076
1590000000               -0.10234633540451021     0.9082270689166061
1620000000               -0.023579788827485973    0.912336470984977
1650000000               0.05516636950222527      0.9096300012075389
1680000000               0.13330389137067497      0.9001429691873439
1710000000               0.21025062001783487      0.8839612906633569
1740000000               0.2854348234635225       0.8612206773827286
1770000000               0.3582994299493482       0.8321054590087666
1800000000               0.42830613474512325      0.7968470484772179
1830000000               0.4949393489817851       0.7557220646823088
1860000000               0.5577099626015712       0.7090501286821788
1890000000               0.6161588951540932       0.6571913518475522
1920000000               0.6698604102103396       0.6005435361961542
1950000000               0.7184251708254973       0.5395391091616583
1980000000               0.7615030158016456       0.47464181655046983
2010000000               0.7987854386938349       0.4063431988032495
2040000000               0.8300077537259561       0.335158877009939
2070000000               0.8549509353561554       0.26162467578683796
2100000000               0.8734431205266546       0.18629261096973548
2130000000               0.8853607651810738       0.10972676984076012
2.16E9                   0.8906294485645422       0.03249911161765621
2.19E9                   0.8892243203142517       -0.04481478511485307
2.22E9                   0.881170185436811        -0.12164000190961805
2.25E9                   0.8665412208084349       -0.19740656030658102
2.28E9                   0.8454603144460983       -0.27155367168591965
2.31E9                   0.8180980186254487       -0.3435339176708745
2.34E9                   0.7846711160316158       -0.4128173088879435
2.37E9                   0.7454408198783572       -0.4788951614098972
2.4E9                    0.700710658789107        -0.5412837415073576
2.43E9                   0.6508241135444757       -0.5995276658610426
2.46E9                   0.5961620530649089       -0.6532030860079177
2.49E9                   0.5371399683669946       -0.7019206962422504
2.52E9                   0.4742049665509857       -0.7453285701818197
2.55E9                   0.4078324924753945       -0.7831147839187935
2.58E9                   0.3385227824006194       -0.8150097614093252
2.61E9                   0.2667970885115102       -0.8407882881785085
2.64E9                   0.19319372694746592      -0.8602711638629021
2.67E9                   0.11826399848977368      -0.8733264837810962
2.7E9                    0.0425680226460333       -0.8798705489102816
2.73E9                   -0.03332948144102552     -0.8798684060718545
2.76E9                   -0.10886343704368269     -0.8733340197711714
2.79E9                   -0.1834726453833012      -0.8603300770541502
2.82E9                   -0.25660398498328896     -0.8409674276067405
2.85E9                   -0.3277165446796888      -0.8154041630537157
2.88E9                   -0.3962856595770384      -0.7838443418479413
2.91E9                   -0.46180681982852745     -0.7465363686997335
2.94E9                   -0.5237994221623453      -0.7037710404223583
2.97E9                   -0.5818103354111615      -0.6558792726933198
3.0E9                    -0.635417252203831       -0.6032295251204443
3.03E9                   -0.6842318008939018      -0.5462249443519032
3.06E9                   -0.727902393317799       -0.48530024764022806
3.09E9                   -0.7661167863822727      -0.42091837122989517
3.12E9                   -0.798604337604008       -0.3535669101233435
3.15E9                   -0.8251379373334292      -0.28375437750827154
3.18E9                   -0.8455356031748696      -0.2120063134396193
3.21E9                   -0.8596617248184764      -0.13886127378179303
3.24E9                   -0.867427950512075       -0.06486673111638203
3.27E9                   -0.8687937093140775      0.009425080009607074
3.3E9                    -0.8637663662331546      0.08346134094747959
3.33E9                   -0.8524010102449362      0.15669281718298872
3.36E9                   -0.8347998780474989      0.22857798461193243
3.39E9                   -0.811111419205097       0.2985870817496873
3.42E9                   -0.7815290110897518      0.36620605645302073
3.45E9                   -0.746289334744402       0.43094037651478195
3.48E9                   -0.7056704255592984      0.49231867433846244
3.51E9                   -0.659989415441282       0.5498961971540587
3.54E9                   -0.609599985955571       0.6032580357342954
3.57E9                   -0.5548895547258628      0.6520221064794828
3.6E9                    -0.4962762199623219      0.6958418641639652
3.63E9                   -0.4342054903694928      0.7344087254428244
3.66E9                   -0.3691468293582351      0.7674541865699585
3.69E9                   -0.3015900438440959      0.7947516220986599
3.72E9                   -0.2320415483423605      0.8161177549013872
3.75E9                   -0.1610205355655152      0.83141379101702
3.78E9                   -0.08905508423313116     0.8405462162632196
3.81E9                   -0.016678234440694696    0.8434672546323185
3.84E9                   0.05557594035460234      0.840174991647438
3.87E9                   0.1271762375128491       0.830713168489203
3.9E9                    0.1975981806522837       0.8151706545006484
3.93E9                   0.26632780375848436      0.7936806063544839
3.96E9                   0.33286534285146274      0.7664193218677501
3.99E9                   0.3967288143996518       0.7336047958557099
4.02E9                   0.45745745872946203      0.6954949853343149
4.05E9                   0.5146150249946562       0.6523857926095541
4.08E9                   0.5677928729781548       0.6046087773900629
4.11E9                   0.6166128665871657       0.5525286127834264
4.14E9                   0.6607300350464382       0.4965403040456675
4.17E9                   0.6998349801544738       0.43706619266960933
4.2E9                    0.7336560115165078       0.37455277096154344
4.23E9                   0.7619609952807829       0.30946733398245946
4.26E9                   0.7845589057202169       0.2422944959288448
4.29E9                   0.801301071948262        0.17353259777546728
4.32E9                   0.8120821144042442       0.10369003231334328
4.35E9                   0.8168405674387004       0.033281511831805825
4.38E9                   0.8155591855021523       -0.03717569638631439
4.41E9                   0.8082649316659385       -0.10716554163805457
4.44E9                   0.7950286486069835       -0.1761769428503409
4.47E9                   0.7759644139927246       -0.24370749698002916
4.5E9                    0.751228584394644        -0.3092671163406116
4.53E9                   0.7210185343233722       -0.37238156837568176
4.56E9                   0.6855710996140513       -0.4325958917726152
4.59E9                   0.6451607370165622       -0.48947766369976914
4.62E9                   0.6000974143472281       -0.5426200942625067
4.65E9                   0.5507242478200087       -0.5916449259657875
4.68E9                   0.4974149049217115       -0.6362051181057891
4.71E9                   0.4405707924141611       -0.6759872981402125
4.74E9                   0.38061804974078534      -0.7107139640081228
4.77E9                   0.3180043685671443       -0.7401454228339002
4.8E9                    0.25319565970602653      -0.764081452434139
4.83E9                   0.18667258982382615      -0.7823626727005005
4.86E9                   0.1189270120330777       -0.7948716148731589
4.89E9                   0.05045831659904909      -0.8015334783067687
4.92E9                   -0.01823026978479767     -0.8023165667957418
4.95E9                   -0.08663540615011574     -0.797232399894686
4.98E9                   -0.15425734991444495     -0.7863354985392422
5.01E9                   -0.2206036294709743      -0.7697228483646802
5.04E9                   -0.28519264724503496     -0.7475330479394904
5.07E9                   -0.34755718602409713     -0.7199451523165321
5.1E9                    -0.40724779384248555     -0.6871772245499205
5.13E9                   -0.4638360255087536      -0.6494846088487212
5.16E9                   -0.5169175208075893      -0.607157939049944
5.19E9                   -0.5661149000555972      -0.5605208957689187
5.22E9                   -0.6110804572642796      -0.5099277256793625
5.25E9                   -0.6514986298579215      -0.45576053808923905
5.28E9                   -0.687088223260909       -0.39842639747305514
5.31E9                   -0.7176043700383915      -0.3383542349890564
5.34E9                   -0.7428402066767168      -0.2759916062207451
5.37E9                   -0.7626282562768841      -0.21180132457439244
5.4E9                    -0.7768415106402627      -0.14625799959604519
5.43E9                   -0.7853942091074413      -0.0798445077699893
5.46E9                   -0.7882423136923902      -0.013048420724535352
5.49E9                   -0.7853836805312471      0.053641585961216265
5.52E9                   -0.7768579275064846      0.11973932078223382
5.55E9                   -0.7627459978933013      0.18476463804532903
5.58E9                   -0.7431694205439988      0.24824694877414208
5.61E9                   -0.7182892688740622      0.3097286544099418
5.64E9                   -0.6883048236260103      0.3687684754847515
5.67E9                   -0.6534519482873286      0.42494464619543815
5.7E9                    -0.6140011906726153      0.47785794612770494
5.73E9                   -0.5702556293213771      0.5271345420273442
5.76E9                   -0.5225484876935591      0.5724286164859199
5.79E9                   -0.4712405417550467      0.6134247656048963
5.82E9                   -0.4167173463779479      0.6498401532209006
5.85E9                   -0.3593863038375476      0.6814264130174048
5.88E9                   -0.29967359512693365     0.7079712911388456
5.91E9                   -0.23802099330499457     0.729300021398531
5.94E9                   -0.1748825788082048      0.745276424055291
5.97E9                   -0.11072137887375569     0.755803719060187
6.0E9                    -0.04600595583153258     0.7608250462018713
