% Model:              three_layers reality at 0.1mm.mph
% Version:            COMSOL 5.6.0.280
% Date:               Feb 23 2022, 19:50
% Table:              表格 1 - 全局计算 1
% freq (Hz)              real(emw.S11) (1)        imag(emw.S11) (1)
300000000                0.5714167738506172       -0.7629268356810525
330000000                0.4991418523566397       -0.8109546837222488
360000000                0.4229727924119889       -0.8522323248733721
390000000                0.34351718553550015      -0.8864475854035487
420000000                0.26141085772832756      -0.9133406828648039
450000000                0.17731291958044615      -0.9327074588527435
480000000                0.09190053267420861      -0.944401997036099
510000000                0.005863444768576188     -0.9483386403878123
540000000                -0.08010165683838757     -0.9444934151059625
570000000                -0.1652969188412385      -0.9329048634669045
600000000                -0.24902917259806667     -0.913674287071403
630000000                -0.33061580667847457     -0.8869654014083832
660000000                -0.40939060683228495     -0.853003404987047
690000000                -0.48470950836943527     -0.8120734687635465
720000000                -0.5559562032437         -0.7645186565374698
750000000                -0.6225475470917385      -0.7107372906084084
780000000                -0.6839387085982939      -0.651179783720658
810000000                -0.7396280081491166      -0.5863449625715663
840000000                -0.789161392104261       -0.5167759153968862
870000000                -0.8321364939115802      -0.4430554009589718
900000000                -0.8682062361959559      -0.3658008621671352
930000000                -0.8970819326586001      -0.28565909310925414
960000000                -0.9185358542180287      -0.20330061250596418
990000000                -0.9324032296604257      -0.11941380111230282
1020000000               -0.9385836578467881      -0.03469886361222924
1050000000               -0.9370419154601506      0.05013832169339322
1080000000               -0.9278081518143015      0.13439240099229643
1110000000               -0.9109774696606373      0.2173647254160924
1140000000               -0.8867088986428673      0.2983694489580066
1170000000               -0.8552237753909946      0.3767394809658933
1200000000               -0.8168035515252664      0.45183223160366986
1230000000               -0.7717870574508308      0.5230350931503326
1260000000               -0.7205672561046172      0.5897706032753537
1290000000               -0.6635875264431755      0.6515012414358275
1320000000               -0.6013375209069416      0.7077338154806793
1350000000               -0.5343486455801404      0.7580234005386841
1380000000               -0.4631892142960421      0.801976799442456
1410000000               -0.3884593307536095      0.839255499586069
1440000000               -0.31078555346176295     0.8695781082886953
1470000000               -0.23081539945153873     0.8927222546360437
1500000000               -0.14921174164253054     0.9085259525336173
1530000000               -0.06664715456674344     0.9168884252236253
1560000000               0.016201739471486756     0.9177703975165379
1590000000               0.09865987329066749      0.9111938668667646
1620000000               0.18005923958101988      0.8972413692214233
1650000000               0.25974425321950284      0.876054759584363
1680000000               0.337076930477479        0.8478335307903353
1710000000               0.4114418479428009       0.8128326969701241
1740000000               0.4822508481122757       0.7713602705346103
1770000000               0.5489474619828713       0.7237743634527662
1800000000               0.6110110231042754       0.6704799449251228
1830000000               0.6679604509595521       0.6119252886097817
1860000000               0.7193576854183021       0.5485981429089951
1890000000               0.7648107569949968       0.4810216583455253
1920000000               0.8039764812541428       0.40975010575943493
1950000000               0.8365627687564867       0.33536441869731065
1980000000               0.8623305448650165       0.25846759294804045
2010000000               0.8810952769771824       0.1796799749178805
2040000000               0.8927281096502733       0.09963446911628858
2070000000               0.8971566110610845       0.01897169252605579
2100000000               0.8943651367005047       -0.0616649001714139
2130000000               0.8843948173002798       -0.1416339021993104
2.16E9                   0.8673431757814399       -0.22030084102868108
2.19E9                   0.8433633693076925       -0.2970430640831376
2.22E9                   0.8126630332175371       -0.3712546283705428
2.25E9                   0.7755026717877336       -0.44235119039794785
2.28E9                   0.7321935047048158       -0.509774853423756
2.31E9                   0.6830946671978207       -0.5729988456195888
2.34E9                   0.6286097286809          -0.6315317913679146
2.37E9                   0.5691826749581742       -0.6849212820986514
2.4E9                    0.5052937313860275       -0.7327565730557893
2.43E9                   0.43745548972484727      -0.7746705600987801
2.46E9                   0.3662095654052088       -0.810341520971991
2.49E9                   0.29212356128666617      -0.8394951257572313
2.52E9                   0.2157878174689529       -0.8619068676338264
2.55E9                   0.13781152047110723      -0.8774046405834259
2.58E9                   0.058818082893286674     -0.8858710227959034
2.61E9                   -0.02056001517597288     -0.8872449410920776
2.64E9                   -0.09968664942778478     -0.881522603542633
2.67E9                   -0.17792752475273074     -0.8687577357844884
2.7E9                    -0.2546555772499552      -0.8490612074695453
2.73E9                   -0.32925624922806984     -0.8226001265432177
2.76E9                   -0.401132611655635       -0.7895964526965369
2.79E9                   -0.46971031514496986     -0.7503251592740577
2.82E9                   -0.5344423464845454      -0.7051119608216285
2.85E9                   -0.5948135615585167      -0.6543306197500938
2.88E9                   -0.6503449606726054      -0.5983998469114115
2.91E9                   -0.7005976693166732      -0.5377798151248246
2.94E9                   -0.7451765869599405      -0.47296830965519077
2.97E9                   -0.7837336672461177      -0.4044965452313493
3.0E9                    -0.8159707955353497      -0.3329246842025597
3.03E9                   -0.8416422330848752      -0.25883709513155884
3.06E9                   -0.8605566014168278      -0.18283739539604707
3.09E9                   -0.8725783855071851      -0.1055433244798552
3.12E9                   -0.8776289398144282      -0.027581497545279887
3.15E9                   -0.8756869871433409      0.050417909643346796
3.18E9                   -0.8667886063442547      0.12782649251564784
3.21E9                   -0.8510267108758001      0.20402291443621465
3.24E9                   -0.8285500259824267      0.27839811786433216
3.27E9                   -0.7995615774796219      0.35036040105998933
3.3E9                    -0.7643167097154313      0.4193403140792598
3.33E9                   -0.7231206541971805      0.48479533024199484
3.36E9                   -0.6763256736968167      0.5462142519779465
3.39E9                   -0.6243278095883551      0.6031213122766805
3.42E9                   -0.5675632630958678      0.6550799349749973
3.45E9                   -0.5065044443999284      0.7016961188485498
3.48E9                   -0.44165572740248094     0.7426214123529453
3.51E9                   -0.37354895291045853     0.7775554480487332
3.54E9                   -0.30273872866405505     0.8062480094895523
3.57E9                   -0.22979758050660753     0.8285006090307718
3.6E9                    -0.15531101445820852     0.844167563040071
3.63E9                   -0.07987255234446647     0.8531565615048582
3.66E9                   -0.004078804028241479    0.8554287404657783
3.69E9                   0.07147536427349054      0.8509982771387193
3.72E9                   0.1462015118858062       0.839931537289456
3.75E9                   0.21952210999104108      0.8223458122871133
3.78E9                   0.29087479510772385      0.7984076895303152
3.81E9                   0.35971636277911545      0.7683311050514989
3.84E9                   0.4255264872751358       0.7323751301967114
3.87E9                   0.48781116823760196      0.6908415429932403
3.9E9                    0.5461059207059592       0.6440722264950514
3.93E9                   0.5999787358802919       0.5924464203628397
3.96E9                   0.649032841618142        0.5363778311462287
3.99E9                   0.6929092815495346       0.4763115875392628
4.02E9                   0.7312893125037011       0.4127210159043916
4.05E9                   0.7638965976329871       0.3461042127989792
4.08E9                   0.7904991548638798       0.2769804042604759
4.11E9                   0.8109110121050993       0.20588610181253456
4.14E9                   0.8249935238028915       0.13337108575198442
4.17E9                   0.8326563155212761       0.05999426195914449
4.2E9                    0.8338578400045326       -0.013680553865857287
4.23E9                   0.828605544987628        -0.08708887170189418
4.26E9                   0.8169556658454703       -0.15966973702972698
4.29E9                   0.7990126629837448       -0.23086988057487182
4.32E9                   0.7749283243688446       -0.3001477843261848
4.35E9                   0.7449005493365921       -0.36697764774386465
4.38E9                   0.7091718235909277       -0.4308532409814159
4.41E9                   0.6680273898245468       -0.4912916303814512
4.44E9                   0.6217931157400063       -0.5478367570094941
4.47E9                   0.5708330620147655       -0.6000628436635432
4.5E9                    0.5155467565206628       -0.6475776013933375
4.53E9                   0.45636618684594377      -0.6900252041407834
4.56E9                   0.3937525298222834       -0.7270890000331383
4.59E9                   0.3281926431694567       -0.7584939303679793
4.62E9                   0.2601953498707246       -0.7840086319746059
4.65E9                   0.190287549234618        -0.8034472051855919
4.68E9                   0.11901018892186706      -0.8166706368867973
4.71E9                   0.046914129264225585     -0.823587874219474
4.74E9                   -0.025444074114018812    -0.8241565474840465
4.77E9                   -0.09750644869305206     -0.8183833393669199
4.8E9                    -0.16871792593876445     -0.8063239923812162
4.83E9                   -0.23853068312666653     -0.7880829400266685
4.86E9                   -0.3064084762030366      -0.7638125433674202
4.89E9                   -0.371830922567282       -0.7337119163426202
4.92E9                   -0.4342976820655673      -0.6980253312327224
4.95E9                   -0.4933324780324081      -0.6570402089544456
4.98E9                   -0.5484868998590942      -0.6110847145780083
5.01E9                   -0.5993439347750157      -0.5605249935989041
5.04E9                   -0.6455211885054158      -0.5057620962256494
5.07E9                   -0.6866737705010902      -0.4472286425970003
5.1E9                    -0.7224968361756761      -0.38538527987164073
5.13E9                   -0.7527277919777564      -0.320716972175783
5.16E9                   -0.7771481744538788      -0.25372914912173816
5.19E9                   -0.795585209063564       -0.18494372342704143
5.22E9                   -0.807913039642596       -0.11489498096558753
5.25E9                   -0.8140536022837088      -0.04412535204340112
5.28E9                   -0.8139771073929218      0.026818908935570297
5.31E9                   -0.8077020986062022      0.0973920854053914
5.34E9                   -0.7952950769626901      0.16705333562535796
5.37E9                   -0.776869705430665       0.23527093681546762
5.4E9                    -0.7525856310325065      0.3015263828239754
5.43E9                   -0.7226469709224608      0.3653183047406296
5.46E9                   -0.687300503398689       0.42616620549265516
5.49E9                   -0.6468335897728638      0.48361401206538485
5.52E9                   -0.6015718357517635      0.5372334500005573
5.55E9                   -0.5518764879084648      0.5866272360669613
5.58E9                   -0.49814155518388487     0.6314320710828302
5.61E9                   -0.4407906482635955      0.6713213994186097
5.64E9                   -0.3802735403072364      0.7060078888560153
5.67E9                   -0.31706246995001863     0.7352455768428696
5.7E9                    -0.25164822916266294     0.7588316305424169
5.73E9                   -0.1845360998559997      0.7766076810184651
5.76E9                   -0.11624171643283586     0.7884607163014151
5.79E9                   -0.04728692984545102     0.794323547801965
5.82E9                   0.021804269804823487     0.7941748886478707
5.85E9                   0.09050974292419056      0.7880390906753929
5.88E9                   0.158313097928027        0.7759855768236877
5.91E9                   0.22470750284374186      0.7581279848474525
5.94E9                   0.28919941194097554      0.7346230187283552
5.97E9                   0.35131219334300834      0.7056689946081527
6.0E9                    0.4105896274276333       0.6715040703181502
