% Model:              cali 2.99 1.02mm.mph
% Version:            COMSOL 5.6.0.280
% Date:               Feb 21 2022, 19:22
% Table:              表格 1 - 全局计算 1
% freq (Hz)              real(emw.S11) (1)        imag(emw.S11) (1)
300000000                0.24668498209418763      -0.5451935670261178
330000000                0.183539765318778        -0.5708433144913956
360000000                0.11789833560200567      -0.5892640310313099
390000000                0.050585681528474424     -0.6002299829086062
420000000                -0.0175550939480166      -0.6036098667223699
450000000                -0.08567366206604242     -0.5993678862739994
480000000                -0.15292334561673987     -0.5875635604833455
510000000                -0.21847183568968662     -0.568350283172412
540000000                -0.28151160231522854     -0.5419726735414552
570000000                -0.34126986237066675     -0.5087627736331473
600000000                -0.39701797734202926     -0.4691351650195363
630000000                -0.4480801658931066      -0.42358109136835137
660000000                -0.49384143039958        -0.3726616858250945
690000000                -0.5337546125496928      -0.3170004121669766
720000000                -0.5673465106674628      -0.2572748356927563
750000000                -0.5942230109773162      -0.1942078427287548
780000000                -0.6140732048977707      -0.1285584252431724
810000000                -0.6266724835920631      -0.06111213719499886
840000000                -0.6318846153114953      0.0073286909734975834
870000000                -0.6296628119636827      0.07595492516593055
900000000                -0.6200497641744543      0.14396077314631586
930000000                -0.6031765482381263      0.21055411729951157
960000000                -0.579260170430102       0.2749670166894907
990000000                -0.5485993502588905      0.33646617823981606
1020000000               -0.5115681093213309      0.3943627838207833
1050000000               -0.4686071236094015      0.44802051206586724
1080000000               -0.4202138188453708      0.4968604050130487
1110000000               -0.3669333849922515      0.5403621409266602
1140000000               -0.30935294019916565     0.5780632923019934
1170000000               -0.2480991038535353      0.6095596636046826
1200000000               -0.183836590893295       0.6345089259074734
1230000000               -0.11726470914837056     0.6526370217038435
1260000000               -0.04911038312907987     0.6637448516734487
1290000000               0.019881481173366924     0.6677130141777485
1320000000               0.08895861174359149      0.6645038358696287
1350000000               0.1573716873077544       0.6541610840157088
1380000000               0.22438382198090923      0.6368080973971657
1410000000               0.2892791923838168       0.6126449158949285
1440000000               0.35137097443540793      0.5819447095502591
1470000000               0.41000875591082586      0.5450495837002897
1500000000               0.46458550041616786      0.5023656975064691
1530000000               0.5145440013311274       0.4543575716540347
1560000000               0.5593825984047506       0.4015414930025166
1590000000               0.5986597852572214       0.34447808892400567
1620000000               0.6319973321610818       0.28376444425329156
1650000000               0.6590818235815832       0.2200264368226188
1680000000               0.6796650487760459       0.15391198830084146
1710000000               0.6935641561368346       0.0860854427736355
1740000000               0.700662404351818        0.017222484986366984
1770000000               0.7009105892656419       -0.051995489337982995
1800000000               0.6943283038066479       -0.1208883481807273
1830000000               0.6810038111141445       -0.18878542855941874
1860000000               0.6610917295604548       -0.2550339806476812
1890000000               0.6348086163120072       -0.31900655027107166
1920000000               0.602427367293209        -0.380106363123367
1950000000               0.5642717297622827       -0.4377705742802036
1980000000               0.520711995032272        -0.49147208887555216
2010000000               0.4721622276733083       -0.5407211418602361
2040000000               0.4190785611769764       -0.5850677257163105
2070000000               0.3619575621288464       -0.6241053755933547
2100000000               0.3013336344610636       -0.6574761089835992
2130000000               0.2377747987444895       -0.6848758083877332
2.16E9                   0.171876680469828        -0.7060591571914193
2.19E9                   0.10425497544238436      -0.7208433175920719
2.22E9                   0.03553697576153177      -0.7291097496945775
2.25E9                   -0.03364703514344249     -0.7308038593073863
2.28E9                   -0.10267158020322019     -0.7259325529936193
2.31E9                   -0.1709221058433945      -0.7145602772249134
2.34E9                   -0.2377989324462446      -0.6968045950082604
2.37E9                   -0.3027192523807036      -0.6728325413076981
2.4E9                    -0.36511813806829513     -0.6428586716632221
2.43E9                   -0.4244499068304308      -0.6071449346931849
2.46E9                   -0.48019096154816643     -0.5660016454320482
2.49E9                   -0.5318445241982048      -0.519788362609127
2.52E9                   -0.578946914702439       -0.468913557324067
2.55E9                   -0.621074560516997       -0.4138324322079419
2.58E9                   -0.6578508508021008      -0.35504279015993173
2.61E9                   -0.688952144371181       -0.2930792289532592
2.64E9                   -0.7141125104772995      -0.22850609644399322
2.67E9                   -0.733126994954504       -0.1619096477583159
2.7E9                    -0.7458533253676394      -0.09388980136272805
2.73E9                   -0.7522120306733555      -0.025051866184268714
2.76E9                   -0.7521850114390994      0.0440013745023738
2.79E9                   -0.7458127011488548      0.11267681373100964
2.82E9                   -0.7331901151587209      0.18039701928097876
2.85E9                   -0.7144622526706677      0.24660480913578486
2.88E9                   -0.6898194254826658      0.3107663539199461
2.91E9                   -0.6594930618853324      0.3723730341172128
2.94E9                   -0.6237523472539396      0.43094251623654634
2.97E9                   -0.5829017648182699      0.4860196027307053
3.0E9                    -0.5372793102608325      0.5371773065853257
3.03E9                   -0.48725500173193403     0.5840183539998202
3.06E9                   -0.4332293515221472      0.6261770611702161
3.09E9                   -0.3756316497584119      0.6633214022169429
3.12E9                   -0.3149180929858063      0.6951551356461032
3.15E9                   -0.2515698422111225      0.7214200147996088
3.18E9                   -0.1860909878886554      0.7418982326822332
3.21E9                   -0.11900621934414418     0.7564152353702531
3.24E9                   -0.05085787542592506     0.7648428765371852
3.27E9                   0.01779792406087424      0.7671026688439364
3.3E9                    0.08639620862880833      0.7631687287103215
3.33E9                   0.15436907499486738      0.753069973944438
3.36E9                   0.2211523286926248       0.7368912132622751
3.39E9                   0.2861924710715371       0.7147729134115939
3.42E9                   0.34895361900153166      0.6869095901732427
3.45E9                   0.40892397018930676      0.6535469116678443
3.48E9                   0.46562149046213436      0.6149777159637413
3.51E9                   0.5185985886040119       0.5715372297782463
3.54E9                   0.5674456547110716       0.5235978285570603
3.57E9                   0.6117934634170965       0.471563691557611
3.6E9                    0.6513145683239586       0.41586566893488586
3.63E9                   0.6857239137237603       0.35695659101063965
3.66E9                   0.7147789396551734       0.2953071291194684
3.69E9                   0.7382794446923584       0.2314021931887271
3.72E9                   0.7560674066306196       0.16573775612801728
3.75E9                   0.7680268707291156       0.09881794955166323
3.78E9                   0.774083929554326        0.031152279452420363
3.81E9                   0.7742067599529445       -0.03674715268378484
3.84E9                   0.7684056574889567       -0.10436849142327094
3.87E9                   0.7567330092442411       -0.17120306212751524
3.9E9                    0.7392831579600035       -0.23674840930115995
3.93E9                   0.7161921205572291       -0.3005114442523662
3.96E9                   0.6876371238584444       -0.3620117104514285
3.99E9                   0.653835908803226        -0.42078477418022664
4.02E9                   0.6150457376585727       -0.47638573521525934
4.05E9                   0.5715620274303579       -0.5283928246157825
4.08E9                   0.5237165372991811       -0.5764110197637443
4.11E9                   0.47187506361271353      -0.6200755719902346
4.14E9                   0.4164346388540448       -0.6590553227207905
4.17E9                   0.3578202799179282       -0.6930556879646841
4.2E9                    0.2964813718064349       -0.7218212179555326
4.23E9                   0.23288779476895913      -0.7451376802090008
4.26E9                   0.1675259022418601       -0.7628336576282349
4.29E9                   0.10089443773571621      -0.7747816869190846
4.32E9                   0.03350045021641162      -0.7808989797604712
4.35E9                   -0.03414476052950182     -0.7811477695144605
4.38E9                   -0.10152965635144007     -0.7755353143332807
4.41E9                   -0.16814642622078058     -0.7641135707863688
4.44E9                   -0.2334948959230955      -0.7469785377733759
4.47E9                   -0.2970863625149933      -0.7242692635171618
4.5E9                    -0.3584473223359895      -0.6961665101481617
4.53E9                   -0.4171230535522812      -0.6628910785855799
4.56E9                   -0.47268101227818954     -0.6247018067871002
4.59E9                   -0.5247140038700914      -0.5818932631278868
4.62E9                   -0.5728430948494675      -0.5347931623982701
4.65E9                   -0.6167202333994428      -0.4837595366876986
4.68E9                   -0.6560305483552606      -0.429177700436896
4.71E9                   -0.6904943017904972      -0.3714570595892888
4.74E9                   -0.7198684832103724      -0.3110278259737465
4.77E9                   -0.7439480548440148      -0.2483377031393769
4.8E9                    -0.7625668826937213      -0.18384860258457378
4.83E9                   -0.7755984080448924      -0.11803342789457294
4.86E9                   -0.7829561205517432      -0.05137293381597427
4.89E9                   -0.7845938833518327      0.015647362831256933
4.92E9                   -0.7805061359888376      0.08254026370987873
4.95E9                   -0.7707279700126906      0.14882000892301633
4.98E9                   -0.7553350439836728      0.21400547310159893
5.01E9                   -0.7344432862336056      0.27762345170259006
5.04E9                   -0.7082083287164744      0.33921202393287253
5.07E9                   -0.6768246235356244      0.39832395309801555
5.1E9                    -0.6405242121517933      0.4545300673228515
5.13E9                   -0.5995751404086073      0.5074225571438115
5.16E9                   -0.5542795336149468      0.5566181317167097
5.19E9                   -0.5049713590925594      0.6017609886438846
5.22E9                   -0.4520139061796562      0.642525566930504
5.25E9                   -0.39579700832544484     0.6786190612975217
5.28E9                   -0.3367340253337523      0.7097836756911395
5.31E9                   -0.27525860305102406     0.7357985868439867
5.34E9                   -0.21182123592796778     0.7564815816587651
5.37E9                   -0.14688567254498217     0.7716903315849377
5.4E9                    -0.08092521944195799     0.7813232759956599
5.43E9                   -0.01441900872694344     0.7853201033784881
5.46E9                   0.05215170362592758      0.7836618398013916
5.49E9                   0.11830714976958223      0.7763705736475915
5.52E9                   0.18357252859361228      0.763508859837068
5.55E9                   0.2474813269971728       0.7451788527848353
5.58E9                   0.30957847950562417      0.7215212139890699
5.61E9                   0.3694233770002853       0.6927138282189018
5.64E9                   0.42659274159749466      0.6589703451888997
5.67E9                   0.4806833805326859       0.6205385470710589
5.7E9                    0.5313148194142994       0.5776985325566012
5.73E9                   0.5781318008019628       0.5307607089777502
5.76E9                   0.6208066249910108       0.480063593496293
5.79E9                   0.6590413099710031       0.42597143618272926
5.82E9                   0.6925695549355617       0.36887168514194774
5.85E9                   0.721158500693597        0.30917231370743437
5.88E9                   0.7446102855158412       0.2472990239740939
5.91E9                   0.762763394096762        0.1836923339780925
5.94E9                   0.7754937916383625       0.11880455178631222
5.97E9                   0.7827158275998602       0.053096640667650144
6.0E9                    0.7843828876063914       -0.012965014751026903
