% Model:              three_layers reality at 0.1mm.mph
% Version:            COMSOL 5.6.0.280
% Date:               Feb 26 2022, 13:46
% Table:              表格 1 - 全局计算 1
% freq (Hz)              real(emw.S11) (1)        imag(emw.S11) (1)
300000000                0.5375703087705184       -0.7402896157172676
330000000                0.46709479870354065      -0.7848797549740167
360000000                0.3930732609384833       -0.8229246127849884
390000000                0.31608579564671974      -0.8541327600580607
420000000                0.2367423128217693       -0.878265244693992
450000000                0.15567634845889808      -0.8951384666017065
480000000                0.07353905138764656      -0.9046264168704119
510000000                -0.009006759821478739    -0.9066623221372279
540000000                -0.09129251405575439     -0.9012397142092237
570000000                -0.1726497855253488      -0.8884129333652988
600000000                -0.25241615999074546     -0.8682970693025253
630000000                -0.32994104124884577     -0.841067342464362
660000000                -0.4045913610537213      -0.8069579301257094
690000000                -0.47575715115209694     -0.7662602441382805
720000000                -0.5428569292087893      -0.71932067228339
750000000                -0.6053428520846351      -0.666537798763365
780000000                -0.6627055856950119      -0.6083591261762932
810000000                -0.7144788441172816      -0.5452773254802848
840000000                -0.7602435503741748      -0.4778260471085567
870000000                -0.7996315746841578      -0.40657533179329636
900000000                -0.8323290101405052      -0.3321266640782994
930000000                -0.8580789492413765      -0.25510771745341543
960000000                -0.8766837306102606      -0.1761668436859496
990000000                -0.8880066310531909      -0.09596736237727929
1020000000               -0.8919729842816517      -0.015181710080155382
1050000000               -0.8885707146448282      0.06551449012232818
1080000000               -0.877850281201583       0.1454483764753796
1110000000               -0.8599240346294796      0.22395575169846713
1140000000               -0.8349649966399746      0.3003868798713904
1170000000               -0.8032050784750139      0.374112117814494
1200000000               -0.7649327617700232      0.4445273235853406
1230000000               -0.7204902711444309      0.5110589889841327
1260000000               -0.6702702736269367      0.5731690465241454
1290000000               -0.6147121448902143      0.6303593065550537
1320000000               -0.5542978465410383      0.6821754854296844
1350000000               -0.4895474622117629      0.7282107913090032
1380000000               -0.4210144426538305      0.7681090404446043
1410000000               -0.3492806120130405      0.8015672826883862
1440000000               -0.27495098836543247     0.8283379213095845
1470000000               -0.1986484716627981      0.848230318315417
1500000000               -0.12100845185375508     0.8611118822468491
1530000000               -0.04267338849941567     0.8669086410869927
1560000000               0.03571258834770781      0.8656053080386488
1590000000               0.1135090090788399       0.8572448527768108
1620000000               0.1900842826191097       0.8419275949256069
1650000000               0.2648207604678543       0.8198098403472245
1680000000               0.3371196089393085       0.7911020839544441
1710000000               0.4064054550623629       0.7560668054959654
1740000000               0.47213077558799554      0.7150158868557398
1770000000               0.5337800018921636       0.6683076811737543
1800000000               0.5908733174742711       0.6163437651629909
1830000000               0.6429701278520501       0.5595654070558511
1860000000               0.6896721864872216       0.49844978277131724
1890000000               0.7306263631931771       0.43350597337417673
1920000000               0.7655270449601478       0.3652707764495643
1950000000               0.7941181619131861       0.2943043638441119
1980000000               0.8161948342043435       0.22118581735056933
2010000000               0.8316046385386454       0.14650857278932866
2040000000               0.8402484958171247       0.07087580136955364
2070000000               0.8420811841476326       -0.005104245921465277
2100000000               0.8371114831945583       -0.0808229087322245
2130000000               0.8254019560167543       -0.1556757867775842
2.16E9                   0.8070683705070962       -0.22906739999803827
2.19E9                   0.7822787513786491       -0.30041583855530185
2.22E9                   0.7512520317500777       -0.36915740324168533
2.25E9                   0.7142562414224252       -0.4347512201446378
2.28E9                   0.6716061404408976       -0.4966837619979555
2.31E9                   0.6236602175766738       -0.5544731164759585
2.34E9                   0.5708170755363485       -0.6076727427954917
2.37E9                   0.5135114312814384       -0.6558744523677729
2.4E9                    0.45221016286552074      -0.698710546864119
2.43E9                   0.38740881608211064      -0.7358554093691313
2.46E9                   0.3196286359776632       -0.7670270984204954
2.49E9                   0.24941373548571183      -0.7919893615080669
2.52E9                   0.177327846579243        -0.8105540393753476
2.55E9                   0.1039503329373          -0.8225834593932917
2.58E9                   0.029871516153247058     -0.8279923718619235
2.61E9                   -0.044312412407345826    -0.8267491819359787
2.64E9                   -0.11800461445633151     -0.818876447885341
2.67E9                   -0.1906127808872835      -0.8044507306446637
2.7E9                    -0.26155417628311456     -0.7836018968697229
2.73E9                   -0.33026052204284895     -0.7565119509519771
2.76E9                   -0.396182706519192       -0.723413439992234
2.79E9                   -0.45879530948424735     -0.6845874549282133
2.82E9                   -0.5176009212193214      -0.6403612415651977
2.85E9                   -0.57213422903441        -0.5911054340122828
2.88E9                   -0.6219658399364612      -0.5372309255479503
2.91E9                   -0.6667058055710846      -0.47918539685566996
2.94E9                   -0.7060068158971806      -0.41744952651991785
2.97E9                   -0.7395670294880787      -0.3525329138081437
3.0E9                    -0.7671325111561204      -0.28496974831676825
3.03E9                   -0.7884992512428917      -0.2153142650592119
3.06E9                   -0.803514745154235       -0.14413602714943835
3.09E9                   -0.8120791167643393      -0.07201508055450241
3.12E9                   -0.8141457743678715      4.6297234636173137E-4
3.15E9                   -0.809721593473383       0.07271193281737573
3.18E9                   -0.7988666262261781      0.14414995175415113
3.21E9                   -0.7816933425887629      0.21420441441413499
3.24E9                   -0.7583654134013397      0.2823167183605928
3.27E9                   -0.7290960498366605      0.3479469010206739
3.3E9                    -0.6941459174961617      0.41057807570444016
3.33E9                   -0.6538206464751433      0.46972063728104657
3.36E9                   -0.6084679613972239      0.524916200807078
3.39E9                   -0.5584744578554233      0.5757412381749621
3.42E9                   -0.5042620544882371      0.6218103790449915
3.45E9                   -0.4462841534024473      0.6627793433287025
3.48E9                   -0.3850215462263402      0.6983474737841401
3.51E9                   -0.3209781089196114      0.7282598395772549
3.54E9                   -0.2546763352476395      0.7523088859371497
3.57E9                   -0.18665276547174853     0.7703356122185477
3.6E9                    -0.11745337215221117     0.7822302708203802
3.63E9                   -0.04762896665465846     0.7879325922212939
3.66E9                   0.022269312219219906     0.7874315546951344
3.69E9                   0.09169437302996375      0.7807647294705033
3.72E9                   0.16010736544949628      0.76801724114328
3.75E9                   0.22698166001856956      0.7493203887078373
3.78E9                   0.29180659284228555      0.7248499750582958
3.81E9                   0.35409096643764537      0.6948243926429489
3.84E9                   0.41336631056282197      0.6595025095258765
3.87E9                   0.4691899191951242       0.6191813917668898
3.9E9                    0.52114768851885         0.5741938839879336
3.93E9                   0.5688567822547486       0.5249060516975079
3.96E9                   0.6119681420496556       0.4717144712297814
3.99E9                   0.6501688431273372       0.41504334205253157
4.02E9                   0.6831842740110698       0.35534139615565097
4.05E9                   0.7107801006833064       0.29307859073145676
4.08E9                   0.7327639658229892       0.2287425895651194
4.11E9                   0.7489868748252047       0.16283505976270468
4.14E9                   0.7593442310405433       0.0958678274618666
4.17E9                   0.7637764989259523       0.028358945961852473
4.2E9                    0.7622694912340926       -0.039171269122544664
4.23E9                   0.7548542909487882       -0.10620418902971807
4.26E9                   0.7416068278514723       -0.17222676706149498
4.29E9                   0.7226471324529555       -0.23673535327571227
4.32E9                   0.6981382873595767       -0.29923941158546835
4.35E9                   0.6682850900469224       -0.359265127687018
4.38E9                   0.6333324344501947       -0.4163588967212345
4.41E9                   0.5935634141203974       -0.4700906762214536
4.44E9                   0.5492971484701672       -0.5200571844888608
4.47E9                   0.500886335936756        -0.5658849191822212
4.5E9                    0.4487145428686919       -0.6072329672505203
4.53E9                   0.39319324336112216      -0.6437955760776815
4.56E9                   0.3347586321154111       -0.6753044569877831
4.59E9                   0.2738682383722528       -0.7015307961767466
4.62E9                   0.21099737351315007      -0.7222869539844182
4.65E9                   0.1466354466082688       -0.7374278407884506
4.68E9                   0.08128218065020967      -0.7468519649094862
4.71E9                   0.015443757439217977     -0.7505021529488403
4.74E9                   -0.0503710870156052      -0.7483659438637398
4.77E9                   -0.11565499944725471     -0.74047565446104
4.8E9                    -0.17990596160244918     -0.7269081073287834
4.83E9                   -0.24263123497295994     -0.7077840062228653
4.86E9                   -0.30335126456328787     -0.6832669424162175
4.89E9                   -0.36160349649792317     -0.6535620209401958
4.92E9                   -0.41694605570066195     -0.6189141076319047
4.95E9                   -0.4689612273454383      -0.5796057140090879
4.98E9                   -0.5172586910850775      -0.5359545532988734
5.01E9                   -0.5614784690470457      -0.488310813916275
5.04E9                   -0.6012935652439344      -0.43705420337392537
5.07E9                   -0.6364122921259799      -0.3825908139838275
5.1E9                    -0.6665802949697794      -0.3253498517359179
5.13E9                   -0.6915822922187385      -0.265780253326302
5.16E9                   -0.7112435463588423      -0.20434719863883297
5.19E9                   -0.7254310656313854      -0.14152851415460696
5.22E9                   -0.7340545171468684      -0.07781096347747402
5.25E9                   -0.7370668163069403      -0.013686436066108683
5.28E9                   -0.7344643550989937      0.050351930967264515
5.31E9                   -0.7262868461860006      0.11381364153994913
5.34E9                   -0.7126167854455169      0.17621467503004978
5.37E9                   -0.693578560969198       0.2370812108272986
5.4E9                    -0.6693372504102283      0.29595320899747163
5.43E9                   -0.6400971464843644      0.3523878364767921
5.46E9                   -0.6061000358997989      0.40596274354206763
5.49E9                   -0.567623238392791       0.4562791976520697
5.52E9                   -0.5249773977659002      0.5029650729736469
5.55E9                   -0.4785040107399309      0.5456776785175838
5.58E9                   -0.42857268252958836     0.5841063918564761
5.61E9                   -0.3755781092428927      0.6179750523439909
5.64E9                   -0.31993680404325175     0.64704406067504
5.67E9                   -0.26208360427093336     0.6711121323834022
5.7E9                    -0.2024680168727998      0.6900176634725378
5.73E9                   -0.14155047411829838     0.7036396872882918
5.76E9                   -0.07979857395511303     0.711898429538787
5.79E9                   -0.017683366017512015    0.7147554943045735
5.82E9                   0.044324281826773775     0.7122137274469053
5.85E9                   0.10575722873689752      0.7043167988393587
5.88E9                   0.16615552659553876      0.691148525253379
5.91E9                   0.22506981357646866      0.6728319329867357
5.94E9                   0.28206462818315947      0.6495280452032256
5.97E9                   0.33672161759196073      0.6214343784102994
6.0E9                    0.3886426000872078       0.588783142979897
