% Model:              three_layers reality at 0.1mm.mph
% Version:            COMSOL 5.6.0.280
% Date:               Feb 22 2022, 09:34
% Table:              表格 1 - 全局计算 1
% freq (Hz)              real(emw.S11) (1)        imag(emw.S11) (1)
300000000                0.43316358604993416      -0.8628167213867428
330000000                0.33619829302359605      -0.9030030422839106
360000000                0.23578795263136476      -0.9323777831112917
390000000                0.1331091080464013       -0.9506807425996986
420000000                0.0293573597370278       -0.9577741927093073
450000000                -0.07426544605044309     -0.9536455782107853
480000000                -0.17656456659210884     -0.9384084437536894
510000000                -0.2763659178399167      -0.9123016073978851
540000000                -0.3725295530096592      -0.8756866276941763
570000000                -0.4639628229868426      -0.8290436325338972
600000000                -0.5496330032274642      -0.7729655960537254
630000000                -0.6285791968821437      -0.7081511657175321
660000000                -0.6999233442168281      -0.6353961566672877
690000000                -0.7628801886496355      -0.5555838438711621
720000000                -0.8167660688874083      -0.4696741952186531
750000000                -0.8610064270169651      -0.3786921990722346
780000000                -0.8951419421950493      -0.28371544910967905
810000000                -0.9188332205201628      -0.18586115617212198
840000000                -0.9318639927541668      -0.08627276139761816
870000000                -0.9341427926303152      0.01389367243512319
900000000                -0.9257031096265577      0.11348311440648838
930000000                -0.9067020308291425      0.21135508922575102
960000000                -0.8774174065883479      0.30639690132827907
990000000                -0.838243593809985       0.3975363964409091
1020000000               -0.7896858487223497      0.4837541066060932
1050000000               -0.7323534574113716      0.5640946360013813
1080000000               -0.6669517073433435      0.637677157273076
1110000000               -0.5942728160925722      0.7037049026086108
1140000000               -0.5151859444577224      0.7614735491505327
1170000000               -0.4306264302493296      0.8103784145967424
1200000000               -0.341584385726333       0.8499203960386096
1230000000               -0.249092806366643       0.8797106023879744
1260000000               -0.15421534119988484     0.89947364822148
1290000000               -0.05803387537281264     0.909049594203557
1320000000               0.03836392583573378      0.9083945361066498
1350000000               0.13389696584838084      0.8975798607514147
1380000000               0.22750281771028416      0.8767902025406651
1410000000               0.3181494430187291       0.8463201487352088
1440000000               0.40484640288830037      0.8065697548750136
1470000000               0.48665544405584654      0.7580389438070787
1500000000               0.5627003535357051       0.7013208725093508
1530000000               0.632175986318623        0.6370943602234211
1560000000               0.6943563822362695       0.5661154793822457
1590000000               0.7486019003883015       0.4892084173408884
1620000000               0.7943653120458652       0.40725572203158883
1650000000               0.8311968056326848       0.32118804850984956
1680000000               0.8587478702963218       0.2319735256078205
1710000000               0.8767740371983301       0.1406068632698065
1740000000               0.8851364704448944       0.04809832077946605
1770000000               0.8838024119150575       -0.044537345173748355
1800000000               0.8728444964973783       -0.13629183621090826
1830000000               0.8524389660998626       -0.22617405935498316
1860000000               0.8228628223541652       -0.3132205580827714
1890000000               0.7844899690627692       -0.3965055265817052
1920000000               0.7377864059329963       -0.4751503148670126
1950000000               0.683304545011367        -0.5483323424871078
1980000000               0.6216767294524811       -0.6152933518582869
2010000000               0.5536080402616864       -0.6753469483453746
2040000000               0.4798684780253705       -0.7278853945697645
2070000000               0.40128459998000904      -0.7723856507334675
2100000000               0.3187306723878422       -0.8084146792784687
2130000000               0.23311935576940856      -0.8356340546446962
2.16E9                   0.14539186812624402      -0.8538039212735165
2.19E9                   0.05650746717129778      -0.8627862944271357
2.22E9                   -0.03256801751038783     -0.8625475496183151
2.25E9                   -0.12087490463269504     -0.8531596484529747
2.28E9                   -0.20747372351642435     -0.8347992165384807
2.31E9                   -0.2914600416423088      -0.8077432281244594
2.34E9                   -0.37197834217507036     -0.7723602536570433
2.37E9                   -0.44823218960582295     -0.7290975533179493
2.4E9                    -0.5194881889699005      -0.6784666246471619
2.43E9                   -0.5850737080082736      -0.6210315905115005
2.46E9                   -0.6443718866957697      -0.5574039219037549
2.49E9                   -0.6968191470074416      -0.48824327563953207
2.52E9                   -0.7419084696545584      -0.41426053193111917
2.55E9                   -0.779197837489281       -0.3362184248774698
2.58E9                   -0.8083206712706329      -0.2549273881396653
2.61E9                   -0.8289950870941134      -0.1712369747255863
2.64E9                   -0.8410303006117639      -0.08602461854933446
2.67E9                   -0.8443299591943071      -1.8349906671276753E-4
2.7E9                    -0.8388929324002012      0.08538936774835623
2.73E9                   -0.8248122346334971      0.16980431259451212
2.76E9                   -0.8022726139407212      0.2521893505423256
2.79E9                   -0.7715471486443037      0.3316997135137985
2.82E9                   -0.7329930450981457      0.4075266511635226
2.85E9                   -0.6870467411288979      0.47890555376542016
2.88E9                   -0.6342183763481952      0.5451234193432576
2.91E9                   -0.5750856752612256      0.60552565970149
2.94E9                   -0.5102872882013288      0.6595222220582855
2.97E9                   -0.440515641006888       0.7065929930736787
3.0E9                    -0.3665093523599996      0.7462924489797523
3.03E9                   -0.2890452858593068      0.7782535171324299
3.06E9                   -0.2089303109413172      0.8021906194119448
3.09E9                   -0.12699285221032977     0.8179018753887212
3.12E9                   -0.044074310185685306    0.8252704522749185
3.15E9                   0.03897956250017423      0.8242650586429043
3.18E9                   0.12132724670983636      0.8149395888065172
3.21E9                   0.20213992561019156      0.7974319336354011
3.24E9                   0.2806097634235467       0.7719619803030351
3.27E9                   0.3559579274585005       0.7388288273547914
3.3E9                    0.42744229224977437      0.6984072421634493
3.33E9                   0.4943647673950004       0.6511433860849234
3.36E9                   0.5560781897545891       0.5975498296931158
3.39E9                   0.6119927145914481       0.5381998789158099
3.42E9                   0.6615816300375692       0.4737212350961395
3.45E9                   0.7043865060616462       0.40478902106389525
3.48E9                   0.7400215764913277       0.33211822314018136
3.51E9                   0.7681772450393485       0.25645562644691416
3.54E9                   0.7886226091627091       0.17857135633493723
3.57E9                   0.8012069138671791       0.09925017704553799
3.6E9                    0.8058598831675223       0.01928273218521203
3.63E9                   0.8025909270867768       -0.060543068649566024
3.66E9                   0.7914872790260259       -0.13945031320291976
3.69E9                   0.7727111717052225       -0.21668081695434438
3.72E9                   0.7464962018222473       -0.2915021739058211
3.75E9                   0.7131430623230117       -0.36321402476672476
3.78E9                   0.6730148403142586       -0.4311534867459759
3.81E9                   0.6265320908917176       -0.4946997428391982
3.84E9                   0.5741678970549605       -0.5532778548459294
3.87E9                   0.5164430987669214       -0.6063619423247503
3.9E9                    0.4539218052007261       -0.6534779430492512
3.93E9                   0.38720719253445834      -0.6942062097585234
3.96E9                   0.31693745783897964      -0.7281841746398676
3.99E9                   0.24378168934116806      -0.755109217878029
4.02E9                   0.16843536563948974      -0.7747417309516518
4.05E9                   0.0916152323720601       -0.786908212874947
4.08E9                   0.014053413490263011     -0.7915041262563991
4.11E9                   -0.06350924016218062     -0.7884962006926367
4.14E9                   -0.14033042400054346     -0.7779239075362739
4.17E9                   -0.2156740382783645      -0.7598999224363271
4.2E9                    -0.28881796000568755     -0.7346095076042346
4.23E9                   -0.35906167715390497     -0.7023088518634469
4.26E9                   -0.42573359458853544     -0.6633224794376977
4.29E9                   -0.4881978966757565      -0.6180398678261526
4.32E9                   -0.5458609179741822      -0.5669114046887141
4.35E9                   -0.5981770142666055      -0.51044377804264
4.38E9                   -0.6446539361719479      -0.4491948525669878
4.41E9                   -0.6848576925629971      -0.3837680546174614
4.44E9                   -0.7184168640835162      -0.3148062786541735
4.47E9                   -0.7450263016824107      -0.2429853385785252
4.5E9                    -0.7644501310384035      -0.169007012352011
4.53E9                   -0.7765239847811726      -0.09359175903991067
4.56E9                   -0.7811564003641004      -0.017471215956020213
4.59E9                   -0.7783293493575707      0.05861939551994786
4.62E9                   -0.7680978999315036      0.1339488183909671
4.65E9                   -0.7505890526811758      0.20779713291500534
4.68E9                   -0.7259998227239307      0.2794628481815366
4.71E9                   -0.6945946586634335      0.3482696443481473
4.74E9                   -0.6567022843512982      0.41357273849887655
4.77E9                   -0.6127120223738576      0.47476487714611554
4.8E9                    -0.5630696189918564      0.5312819644699796
4.83E9                   -0.5082725564476667      0.582608313403344
4.86E9                   -0.4488648272411383      0.6282814650937445
4.89E9                   -0.3854311640403779      0.6678964788547979
4.92E9                   -0.31859076399198494     0.7011095677583031
4.95E9                   -0.24899060339292528     0.72764095624348
4.98E9                   -0.17729849158533215     0.7472768672569559
5.01E9                   -0.10419604726624937     0.7598706015566521
5.04E9                   -0.030371787177903897    0.7653427398193456
5.07E9                   0.04348550844830826      0.7636805655914047
5.1E9                    0.11669304591508763      0.7549368577928744
5.13E9                   0.1885798536412441       0.7392282190421686
5.16E9                   0.25849225248714947      0.7167330791237057
5.19E9                   0.3257990619718877       0.6876894437337308
5.22E9                   0.3898966436943065       0.6523923694385825
5.25E9                   0.45021382513604497      0.6111910748758038
5.28E9                   0.5062166542089083       0.5644855823739816
5.31E9                   0.5574128527734157       0.512722835800149
5.34E9                   0.6033558098575509       0.45639233603063956
5.37E9                   0.6436479980939822       0.3960214266990719
5.4E9                    0.6779437880691251       0.33217040498399664
5.43E9                   0.7059517305107659       0.26542760800725995
5.46E9                   0.7274364343477654       0.19640455103595358
5.49E9                   0.7422201712439996       0.125731103925499
5.52E9                   0.7501842906985576       0.054050621135102374
5.55E9                   0.7512704558552372       -0.017985092175130665
5.58E9                   0.7454816325136125       -0.08972108595170018
5.61E9                   0.7328827010747546       -0.16050490539079063
5.64E9                   0.7136005258432316       -0.22969255675439626
5.67E9                   0.6878233173862853       -0.29665470616243805
5.7E9                    0.6557991677946643       -0.3607829389985341
5.73E9                   0.6178337237296383       -0.4214958560899845
5.76E9                   0.5742870694364101       -0.47824478431331024
5.79E9                   0.5255699841279766       -0.5305189440992276
5.82E9                   0.4721397743774496       -0.577850024553846
5.85E9                   0.41449584431635406      -0.6198162214829508
5.88E9                   0.3531750761591571       -0.6560458458357671
5.91E9                   0.2887470000411147       -0.6862205916687628
5.94E9                   0.22180868002475976      -0.7100784843787393
5.97E9                   0.15297924747290656      -0.7274164527617359
6.0E9                    0.08289405893038389      -0.7380924160835733
