% Model:              three_layers reality at 0.1mm.mph
% Version:            COMSOL 5.6.0.280
% Date:               Mar 2 2022, 20:32
% Table:              表格 1 - 全局计算 1
% freq (Hz)              real(emw.S11) (1)        imag(emw.S11) (1)
300000000                0.5800961811896898       -0.7887555249621419
330000000                0.5039361843635056       -0.8395301643797094
360000000                0.42338131480434316      -0.8829634141626093
390000000                0.3391370067958974       -0.9186751955989442
420000000                0.2519420062207107       -0.9463529061700409
450000000                0.16256192827587734      -0.965754450093463
480000000                0.07178253034436625      -0.9767106578524087
510000000                -0.019597248403047197    -0.9791270664661493
540000000                -0.11077242481925752     -0.972985034660632
570000000                -0.20093922496129668     -0.9583421707713988
600000000                -0.28930238694503024     -0.9353320566909137
630000000                -0.37508244409121616     -0.9041632574046089
660000000                -0.45752291575809184     -0.8651176129481697
690000000                -0.5358973317984063      -0.818547817492069
720000000                -0.6095160156271602      -0.7648742986723001
750000000                -0.6777325511797669      -0.7045814191150823
780000000                -0.7399498607511786      -0.6382130309398346
810000000                -0.7956258233227922      -0.5663674230892393
840000000                -0.8442783672886578      -0.48969170986291655
870000000                -0.8854899767807629      -0.4088757172288123
900000000                -0.9189115572223256      -0.3246454312225182
930000000                -0.944265613553501       -0.23775607918375413
960000000                -0.9613487030055561      -0.1489849204868989
990000000                -0.9700331337898618      -0.05912382768696414
1020000000               -0.9702678909766841      0.031028257619865725
1050000000               -0.9620787812686491      0.12067290843202252
1080000000               -0.9455677988747436      0.20901974895086062
1110000000               -0.920911725192897       0.29529385934328706
1140000000               -0.8883599851729379      0.37874296586901607
1170000000               -0.8482317929023433      0.45864433788702047
1200000000               -0.8009126279033781      0.5343113182805549
1230000000               -0.7468500916834672      0.6050994201756137
1260000000               -0.6865492011174512      0.6704119300295489
1290000000               -0.6205671810488473      0.7297049652378134
1320000000               -0.5495078231673667      0.7824919428633358
1350000000               -0.4740154815156684      0.8283474250503451
1380000000               -0.3947687771462352      0.8669103156413883
1410000000               -0.31247408502341945     0.8978863916447706
1440000000               -0.22785887629279122     0.9210501616880834
1470000000               -0.14166498705330977     0.9362460522088135
1500000000               -0.054641882826530264    0.9433889296536672
1530000000               0.03246001578530908      0.9424639742515173
1560000000               0.11889588454916976      0.9335259272001718
1590000000               0.20393286713257108      0.9166977386951489
1620000000               0.28685621462241234      0.892168648946007
1650000000               0.3669751462884577       0.8601917381730442
1680000000               0.44362839005786836      0.8210809846676228
1710000000               0.516189366754579        0.7752078722106677
1740000000               0.5840709872422031       0.7229975897448226
1770000000               0.6467300368966087       0.6649248669861264
1800000000               0.7036711264248009       0.6015094900751157
1830000000               0.7544501926910417       0.5333115411216908
1860000000               0.7986775372718612       0.46092640494148807
1890000000               0.836020394184584        0.38497958543288896
1920000000               0.8662050216307975       0.30612137291404706
1950000000               0.8890183155581938       0.22502140251475514
1980000000               0.9043089454888709       0.14236314246286638
2010000000               0.911988015459847        0.05883834967406713
2040000000               0.9120292549645623       -0.02485847115088917
2070000000               0.904468746718436        -0.10803556995112731
2100000000               0.88940419981856         -0.1900093815353875
2130000000               0.8669937785359583       -0.2701098508773871
2.16E9                   0.8374544986142358       -0.34768562189911045
2.19E9                   0.80106020452181         -0.4221090592955517
2.22E9                   0.758139142766207        -0.4927810739511507
2.25E9                   0.7090711477542524       -0.5591357242130732
2.28E9                   0.6542844580792893       -0.6206445665898109
2.31E9                   0.5942521816626913       -0.6768207317401422
2.34E9                   0.5294884279742215       -0.7272227034746881
2.37E9                   0.46054412354610097      -0.7714577802523593
2.4E9                    0.38800252300861066      -0.8091851983997416
2.43E9                   0.31247442188998137      -0.8401188919387149
2.46E9                   0.23459307223781156      -0.8640298518003713
2.49E9                   0.1550088040823516       -0.8807480249124797
2.52E9                   0.07438337660275067      -0.8901636638164497
2.55E9                   -0.006615865091214879    -0.892228015536433
2.58E9                   -0.08732186989450669     -0.8869532562092234
2.61E9                   -0.16707356547185911     -0.8744116684998418
2.64E9                   -0.2452211212219334      -0.854734213934568
2.67E9                   -0.3211307026293282      -0.8281087859891513
2.7E9                    -0.39418885609711574     -0.7947784177732014
2.73E9                   -0.4638068171147219      -0.7550395243587313
2.76E9                   -0.5294249865338532      -0.7092400111063513
2.79E9                   -0.5905176089862088      -0.6577769587143175
2.82E9                   -0.6465974804033439      -0.60109366451241
2.85E9                   -0.6972204325266461      -0.5396759853652229
2.88E9                   -0.7419893868455413      -0.47404806609267935
2.91E9                   -0.7805578623117736      -0.4047675950005412
2.94E9                   -0.8126328973586923      -0.3324207221318516
2.97E9                   -0.8379773869473248      -0.2576167453056281
3.0E9                    -0.8564118479784096      -0.18098264010336784
3.03E9                   -0.8678156256667816      -0.10315749206003365
3.06E9                   -0.872127549760924       -0.024786881236428207
3.09E9                   -0.8693460473857082      0.05348273265120717
3.12E9                   -0.8595287199839593      0.13100957604870844
3.15E9                   -0.8427913948023985      0.20716202907075454
3.18E9                   -0.8193066657997559      0.2813239454071137
3.21E9                   -0.7893019439427823      0.3528997764731683
3.24E9                   -0.7530570419857423      0.42131945380327046
3.27E9                   -0.7109013236876871      0.48604298675764135
3.3E9                    -0.6632104516571904      0.5465647365404153
3.33E9                   -0.6104027716532465      0.6024173318141219
3.36E9                   -0.5529353741257474      0.6531751958649233
3.39E9                   -0.49129987602442493     0.6984576601942722
3.42E9                   -0.42601796764540967     0.7379316442980622
3.45E9                   -0.35763677033127905     0.771313886449084
3.48E9                   -0.2867240514889699      0.7983727152332115
3.51E9                   -0.21386334333901377     0.8189293565923951
3.54E9                   -0.13964901137400912     0.83285877596682
3.57E9                   -0.06468131743671109     0.8400900598971295
3.6E9                    0.010438479255023482     0.8406063460421571
3.63E9                   0.08511294203953171      0.8344443148910443
3.66E9                   0.15875315943341325      0.8216932603654237
3.69E9                   0.23078329560131775      0.80249375976562
3.72E9                   0.30064495761361165      0.7770359659121806
3.75E9                   0.36780135226904404      0.7455575456895535
3.78E9                   0.4317412086689412       0.7083412895483091
3.81E9                   0.49198244519156004      0.6657124162230371
3.84E9                   0.548075560930371        0.618035596482142
3.87E9                   0.5996067319361548       0.565711719917475
3.9E9                    0.6462005923437485       0.5091744301929019
3.93E9                   0.6875226804687653       0.4488864571818172
3.96E9                   0.7232815312827268       0.38533577890363807
3.99E9                   0.753230400345413        0.3190316514349775
4.02E9                   0.7771686109634708       0.2505005494574538
4.05E9                   0.7949425257202418       0.18028206211320527
4.08E9                   0.8064461540886452       0.10892478652168198
4.11E9                   0.8116214169345          0.03698225394152161
4.14E9                   0.8104580932390064       -0.03499108727727114
4.17E9                   0.8029934726921518       -0.10644381936360235
4.2E9                    0.7893117305158622       -0.17683142865556106
4.23E9                   0.7695430314661348       -0.2456201018279155
4.26E9                   0.7438623628038599       -0.3122904373839858
4.29E9                   0.7124880941845778       -0.37634105780904037
4.32E9                   0.6756802658839192       -0.43729210215472414
4.35E9                   0.6337386124579784       -0.49468857766693175
4.38E9                   0.587000333091064        -0.548103551932833
4.41E9                   0.5358376201716636       -0.5971411712656777
4.44E9                   0.48065495436331374      -0.6414394933483184
4.47E9                   0.42188617050551724      -0.6806731202554549
4.5E9                    0.35999129685383285      -0.7145556127472665
4.53E9                   0.29545317259064685      -0.7428416600962433
4.56E9                   0.22877385498323852      -0.76532897462432
4.59E9                   0.16047083644708524      -0.7818598785033959
4.62E9                   0.0910731011128103       -0.7923225527203567
4.65E9                   0.021117058197978447     -0.7966519240469119
4.68E9                   -0.04885760540337483     -0.7948301741293351
4.71E9                   -0.11831210942164763     -0.786886864086757
4.74E9                   -0.18671275919174735     -0.7728986766001944
4.77E9                   -0.25353508169159955     -0.7529887840119462
4.8E9                    -0.3182678867960072      -0.7273258542558176
4.83E9                   -0.38041722694592983     -0.6961227065146341
4.86E9                   -0.4395102312005512      -0.6596346263609119
4.89E9                   -0.49509878916325384     -0.6181573478256788
4.92E9                   -0.5467630574848913      -0.5720247091766403
4.95E9                   -0.5941147579084504      -0.5216059912663468
4.98E9                   -0.6368002329944793      -0.4673029518845285
5.01E9                   -0.6745032246297175      -0.40954657580857684
5.04E9                   -0.7069473416819293      -0.34879356690720065
5.07E9                   -0.7338981863252348      -0.2855226151056371
5.1E9                    -0.7551651135169126      -0.22023047665898343
5.13E9                   -0.7706026046373146      -0.15342791064501274
5.16E9                   -0.7801112442721272      -0.08563551715121093
5.19E9                   -0.7836382977804166      -0.017379522466525372
5.22E9                   -0.7811778951509774      0.05081244681326666
5.25E9                   -0.7727708317687076      0.11841556497214632
5.28E9                   -0.758503997614007       0.1849119544445328
5.31E9                   -0.7385094435930946      0.2497947540517843
5.34E9                   -0.7129630896616551      0.3125720828326852
5.37E9                   -0.6820830775961869      0.3727708694862221
5.4E9                    -0.6461277740696721      0.42994051121333854
5.43E9                   -0.6053934370106828      0.4836563212629524
5.46E9                   -0.5602115680738363      0.5335227239194145
5.49E9                   -0.5109459837875062      0.5791761594880315
5.52E9                   -0.45798964572092316     0.6202876690610639
5.55E9                   -0.40176129495631746     0.656565138150786
5.58E9                   -0.34270193800262877     0.6877551886469775
5.61E9                   -0.2812712296758095      0.7136447191513962
5.64E9                   -0.21794379303546396     0.7340621032630245
5.67E9                   -0.15320550716101788     0.7488780618368184
5.7E9                    -0.08754978225068122     0.758006225984369
5.73E9                   -0.02147383190668375     0.7614034013871995
5.76E9                   0.04452505032234591      0.7590695331291536
5.79E9                   0.1099531963251014       0.751047359519429
5.82E9                   0.17432422275159462      0.7374217403342315
5.85E9                   0.2371626020917674       0.7183186533466416
5.88E9                   0.2980070972605267       0.6939038701242645
5.91E9                   0.35641401728053723      0.6643813399227476
5.94E9                   0.4119602663642072       0.6299913212906043
5.97E9                   0.46424617532767276      0.5910083015854041
6.0E9                    0.5128981166354066       0.5477387371967897
