% Model:              three_layers reality at 0.1mm.mph
% Version:            COMSOL 5.6.0.280
% Date:               Feb 23 2022, 18:06
% Table:              表格 1 - 全局计算 1
% freq (Hz)              real(emw.S11) (1)        imag(emw.S11) (1)
300000000                0.6092903966507489       -0.7421502437777903
330000000                0.5421985081820759       -0.7918379655892464
360000000                0.4711791302187582       -0.8355261740050273
390000000                0.3967540701198951       -0.8729066969105409
420000000                0.31947144872586386      -0.903715747939946
450000000                0.23990149644373704      -0.9277364950454001
480000000                0.15863219705612686      -0.9448011454831717
510000000                0.07626480496089344      -0.9547925656436356
540000000                -0.006590732398381505    -0.9576454472715238
570000000                -0.08932041593721235     -0.9533470285974643
600000000                -0.17131086565680675     -0.9419373769677772
630000000                -0.25195398697880583     -0.923509239387507
660000000                -0.3306515987157684      -0.8982074678986822
690000000                -0.40681998663648805     -0.8662280284140774
720000000                -0.47989434937610786     -0.8278166031508057
750000000                -0.5493331019671429      -0.7832667993001083
780000000                -0.6146220035273126      -0.7329179790625333
810000000                -0.675278077000537       -0.6771527286133918
840000000                -0.7308532898663676      -0.6163939863846005
870000000                -0.7809379667614395      -0.551101853313353
900000000                -0.8251639064432933      -0.48177011072201537
930000000                -0.8632071783460218      -0.40892247329665166
960000000                -0.8947905759563103      -0.3331086073778309
990000000                -0.9196857075030499      -0.25489994623237217
1020000000               -0.9377147070425121      -0.17488533590148275
1050000000               -0.9487515522259544      -0.09366654701753568
1080000000               -0.9527229785531447      -0.01185368821496048
1110000000               -0.949608982988976       0.06993944149973148
1140000000               -0.939442913503635       0.1511000240835621
1170000000               -0.922311144525629       0.23102088006679905
1200000000               -0.8983523417678756      0.3091050750566287
1230000000               -0.8677563234116733      0.38477043816215306
1260000000               -0.8307625279420388      0.4574539567738731
1290000000               -0.78765810211822        0.526616013055201
1320000000               -0.7387756259237348      0.591744428679345
1350000000               -0.6844904939028522      0.6523582869439983
1380000000               -0.6252179752923852      0.7080115028417066
1410000000               -0.5614099776518376      0.7582961142608845
1440000000               -0.49355154105528387     0.8028452699220274
1470000000               -0.42215709168394044     0.8413358924655416
1500000000               -0.34776648551445133     0.8734909977956637
1530000000               -0.2709408740603544      0.8990816548811278
1560000000               -0.1922584250313218      0.9179285732524619
1590000000               -0.11230993199103044     0.9299033083625761
1620000000               -0.03169434710302745     0.9349290782928752
1650000000               0.04898572859977346      0.932981188255951
1680000000               0.1291285628726774       0.9240870624112025
1710000000               0.2081377840307404       0.9083258855432951
1740000000               0.28542681334686437      0.885827860013971
1770000000               0.3604232055220729       0.8567730862337015
1800000000               0.43257286594348215      0.8213900775061559
1830000000               0.5013441142681526       0.7799539227641699
1860000000               0.5662315659882042       0.7327841128988858
1890000000               0.6267598045755935       0.6802420488825497
1920000000               0.6824868192985516       0.6227282515987489
1950000000               0.7330071850733063       0.5606792955845378
1980000000               0.7779549634397633       0.49456449013799325
2010000000               0.8170063054349914       0.4248823331270997
2040000000               0.8498817397885162       0.3521567638697235
2070000000               0.8763481322315094       0.27693324239828854
2100000000               0.8962203040538093       0.1997746834458428
2130000000               0.9093623008099677       0.1212572730794171
2.16E9                   0.915688303970541        0.04196619633615267
2.19E9                   0.9151631801661942       -0.03750869710564747
2.22E9                   0.9078026629064475       -0.1165772628148136
2.25E9                   0.8936731603642404       -0.1946534406758596
2.28E9                   0.8728911801170182       -0.27115961362417557
2.31E9                   0.8456223604956371       -0.3455309082009812
2.34E9                   0.8120801044487348       -0.41721938580640033
2.37E9                   0.7725238319059369       -0.48569806289984857
2.4E9                    0.7272568969445878       -0.5504647059969627
2.43E9                   0.6766242364632696       -0.6110453809205355
2.46E9                   0.6210098025877901       -0.6669977791104966
2.49E9                   0.5608337850087065       -0.7179143594522317
2.52E9                   0.4965495895629893       -0.7634253156133461
2.55E9                   0.4286405399903728       -0.8032013319755154
2.58E9                   0.35761630281670076      -0.8369560662039484
2.61E9                   0.28400907019624866      -0.8644483031483805
2.64E9                   0.20836955108763214      -0.8854837474172812
2.67E9                   0.13126281980357532      -0.8999164414586751
2.7E9                    0.053264063308785664     -0.9076498060244671
2.73E9                   -0.025045737916082268    -0.9086373029110846
2.76E9                   -0.10308416400263153     -0.9028827201626278
2.79E9                   -0.18027171438224718     -0.8904400800740911
2.82E9                   -0.2560361401552722      -0.8714131712866309
2.85E9                   -0.32981671896813314     -0.8459547081244578
2.88E9                   -0.40106844072575926     -0.814265122724105
2.91E9                   -0.46926607268521536     -0.7765909982406722
2.94E9                   -0.5339080728773589      -0.7332231542589792
2.97E9                   -0.5945203216087962      -0.6844943984326356
3.0E9                    -0.6506596419956361      -0.6307769612261428
3.03E9                   -0.7019170821412823      -0.5724796331915039
3.06E9                   -0.7479209330607914      -0.5100446270184312
3.09E9                   -0.7883394589329017      -0.4439441886309113
3.12E9                   -0.822883318237463       -0.3746769840284004
3.15E9                   -0.8513076570270514      -0.30276429041823
3.18E9                   -0.8734138584084814      -0.22874602157885937
3.21E9                   -0.8890509349556194      -0.15317661912895933
3.24E9                   -0.8981165539774847      -0.07662084203198591
3.27E9                   -0.9005576884748994      3.505124326527047E-4
3.3E9                    -0.8963708897124877      0.07716492263752245
3.33E9                   -0.885602180330791       0.15325245791805397
3.36E9                   -0.8683465698897641      0.22805006149154156
3.39E9                   -0.8447471976250291      0.30100576794592926
3.42E9                   -0.8149941100487142      0.37158282250888175
3.45E9                   -0.7793226838331049      0.4392636701355109
3.48E9                   -0.7380117072346106      0.503553783338502
3.51E9                   -0.6913811361661948      0.5639852987506355
3.54E9                   -0.6397895439368576      0.6201204338138387
3.57E9                   -0.5836312866156838      0.6715546567496777
3.6E9                    -0.5233334087346618      0.7179195853041931
3.63E9                   -0.45935231664421483     0.7588855924733697
3.66E9                   -0.39217024895748054     0.7941641006086606
3.69E9                   -0.3222915749724529      0.8235095488926826
3.72E9                   -0.25023895289248815     0.8467210226879637
3.75E9                   -0.1765493802825315      0.8636435367507697
3.78E9                   -0.10177016888468007     0.8741689679458068
3.81E9                   -0.02645487582675088     0.8782366364185258
3.84E9                   0.04884077816975747      0.8758335377071351
3.87E9                   0.1235629746134917       0.8669942311815156
3.9E9                    0.1971638207341261       0.8518003923473323
3.93E9                   0.26910530673478233      0.8303800374291074
3.96E9                   0.33886317474710204      0.8029064284504699
3.99E9                   0.40593067799379484      0.769596666301892
4.02E9                   0.4698222078366445       0.7307099790048407
4.05E9                   0.5300767647257445       0.68654571332023
4.08E9                   0.5862612475206096       0.6374410402652851
4.11E9                   0.6379735349637259       0.5837683887881533
4.14E9                   0.6848453339761481       0.5259326258948711
4.17E9                   0.726544771468435        0.4643680055710526
4.2E9                    0.7627787098741706       0.3995349116415982
4.23E9                   0.7932947701682118       0.3319164218098025
4.26E9                   0.8178830501085639       0.26201472057080666
4.29E9                   0.836377528502278        0.1903473887863486
4.32E9                   0.8486571489833197       0.11744359687786438
4.35E9                   0.8546465785479239       0.0438402280227934
4.38E9                   0.8543166374743774       -0.029922042573129526
4.41E9                   0.8476843985100591       -0.1033026863057712
4.44E9                   0.834812954585237        -0.17576525115438352
4.47E9                   0.8158108561053496       -0.2467812559813195
4.5E9                    0.7908312210261603       -0.3158340216216373
4.53E9                   0.7600705234016719       -0.38242241107255726
4.56E9                   0.7237670687739197       -0.4460644513276698
4.59E9                   0.6821991675499043       -0.5063008099949688
4.62E9                   0.6356830201732372       -0.5626981011196611
4.65E9                   0.5845703304472893       -0.6148519961085562
4.68E9                   0.5292456653222021       -0.6623901178787319
4.71E9                   0.47012358104942004      -0.7049746984093653
4.74E9                   0.4076455363586698       -0.742304982118934
4.77E9                   0.3422766139453451       -0.77411935898568
4.8E9                    0.27450207195914944      -0.8001972125143264
4.83E9                   0.20482374833483716      -0.8203604682289285
4.86E9                   0.13375634239962153      -0.8344748292103358
4.89E9                   0.061823600560443386     -0.8424506865125414
4.92E9                   -0.01044556471833289     -0.844243694601702
4.95E9                   -0.08252099135955451     -0.839855005226461
4.98E9                   -0.15387518689397287     -0.8293311571391455
5.01E9                   -0.22398721763765908     -0.8127636234865703
5.04E9                   -0.29234653592554444     -0.7902880230058962
5.07E9                   -0.358456715375369       -0.7620830049905938
5.1E9                    -0.4218390671948881      -0.7283688207641847
5.13E9                   -0.48203611334954916     -0.6894055959196255
5.16E9                   -0.5386148950632806      -0.6454913177441566
5.19E9                   -0.5911700962338934      -0.5969595516877695
5.22E9                   -0.6393269609280341      -0.5441769005311674
5.25E9                   -0.6827439827128664      -0.48754022114906936
5.28E9                   -0.7211153423303827      -0.42747361723366384
5.31E9                   -0.7541730710695397      -0.3644252310501757
5.34E9                   -0.7816889203220576      -0.2988638622495054
5.37E9                   -0.8034759232180892      -0.23127544478403125
5.4E9                    -0.8193896401175575      -0.16215941327414882
5.43E9                   -0.8293290843483199      -0.09202498862586155
5.46E9                   -0.8332373273596613      -0.021387409746282112
5.49E9                   -0.831101783232179       0.04923586407022739
5.52E9                   -0.8229541722037075      0.11932895655333405
5.55E9                   -0.8088701625556605      0.1883813597817965
5.58E9                   -0.7889686905130194      0.2558916762016905
5.61E9                   -0.7634109591901352      0.3213712899282673
5.64E9                   -0.7323991201831361      0.38434793806962825
5.67E9                   -0.6961746452868524      0.44436915100920127
5.7E9                    -0.6550164008077212      0.5010055302015879
5.73E9                   -0.6092384427400075      0.5538538332635128
5.76E9                   -0.5591875563100813      0.6025398399570698
5.79E9                   -0.5052405669847024      0.646720978187282
5.82E9                   -0.44780145039700625     0.6860886955467977
5.85E9                   -0.38729826658875643     0.7203705665567041
5.88E9                   -0.32417994075941703     0.7493321277821232
5.91E9                   -0.25891291068001776     0.7727784324579391
5.94E9                   -0.19197766102471903     0.7905553148807145
5.97E9                   -0.12386516716655366     0.8025503541179493
6.0E9                    -0.0550732738544335      0.8086935277066294
