% Model:              three_layers reality at 0.1mm.mph
% Version:            COMSOL 5.6.0.280
% Date:               Feb 23 2022, 19:22
% Table:              表格 1 - 全局计算 1
% freq (Hz)              real(emw.S11) (1)        imag(emw.S11) (1)
300000000                0.5531907279296354       -0.7462247647840611
330000000                0.48275651630684496      -0.7920380092184156
360000000                0.40866859559947777      -0.831363866297044
390000000                0.33149725385223516      -0.8638999498868541
420000000                0.2518439646968044       -0.8893952738983532
450000000                0.17033516010872615      -0.9076532678476497
480000000                0.08761623358235049      -0.9185341204053126
510000000                0.0043456486251860936    -0.9219565222358335
540000000                -0.07881090921813527     -0.917898842198505
570000000                -0.16118635491535047     -0.9063997510880795
600000000                -0.24211799725551622     -0.8875582987603844
630000000                -0.3209532804106198      -0.8615334470929347
660000000                -0.3970554421758471      -0.8285430618149386
690000000                -0.4698090503544462      -0.788862368083428
720000000                -0.5386253721167695      -0.7428218792747537
750000000                -0.6029475318762566      -0.6908048116921806
780000000                -0.6622554081354672      -0.6332440046432309
810000000                -0.7160702230530861      -0.5706183692249097
840000000                -0.7639587776603197      -0.5034488957237987
870000000                -0.8055372883566048      -0.4322942550113368
900000000                -0.8404747842094195      -0.3577460336878102
930000000                -0.8684960275067418      -0.2804236487560022
960000000                -0.8893839254882349      -0.2009689914712657
990000000                -0.9029814065879258      -0.12004085362428472
1020000000               -0.9091927403308893      -0.038309193089944515
1050000000               -0.9079842866952822      0.043550702596717006
1080000000               -0.8993846674832287      0.12486409440161972
1110000000               -0.8834843591367056      0.20496265086560414
1140000000               -0.8604347135275177      0.28319022756717377
1170000000               -0.8304464199752926      0.3589085083203576
1200000000               -0.7937874284762403      0.43150245074231997
1230000000               -0.7507803602697545      0.500385482741612
1260000000               -0.7017994376127323      0.5650043997064563
1290000000               -0.647266969819749       0.6248439167664034
1320000000               -0.587649436940923       0.6794308356270266
1350000000               -0.523453216335945       0.7283377906390642
1380000000               -0.45522000012853026     0.7711865448260568
1410000000               -0.3835219537858627      0.8076508122950186
1440000000               -0.30895666731093147     0.8374585896312416
1470000000               -0.2321419510848447      0.8603939847838808
1500000000               -0.1537105280352675      0.8762985378525789
1530000000               -0.07430467327333333     0.8850720335899972
1560000000               0.005429149644522369     0.8866728108820731
1590000000               0.08484560848606293      0.8811175791480983
1620000000               0.16330573329644926      0.8684807560150598
1650000000               0.24018201675730444      0.8488933445108823
1680000000               0.31486334521794623      0.8225413713617323
1710000000               0.38675972505262063      0.7896639108502931
1740000000               0.4553067726105063       0.750550720983075
1770000000               0.5199699393513134       0.7055395206157838
1800000000               0.580248447537754        0.6550129374894453
1830000000               0.6356789148743669       0.5993951583198887
1860000000               0.6858386504823089       0.5391483123010612
1890000000               0.7303486069906331       0.4747686202083359
1920000000               0.7688759774275923       0.40678234064940083
1950000000               0.8011364278853446       0.3357415452917603
1980000000               0.8268959602745671       0.262219753900218
2010000000               0.8459724021015422       0.1868074591374956
2040000000               0.8582365228964591       0.1101075697855662
2070000000               0.8636127795623996       0.032730798334213745
2100000000               0.8620796946388709       -0.04470898422729265
2130000000               0.8536698719276729       -0.12159940860583228
2.16E9                   0.8384696510742238       -0.19733427137092313
2.19E9                   0.8166183939545952       -0.271318198021675
2.22E9                   0.7883073783007867       -0.34297130221139754
2.25E9                   0.753778247711082        -0.41173382626308624
2.28E9                   0.7133209418130513       -0.4770707085754198
2.31E9                   0.6672710333572085       -0.5384759492231873
2.34E9                   0.6160064732516105       -0.5954765582492716
2.37E9                   0.5599439092172969       -0.6476358483363799
2.4E9                    0.4995349273368046       -0.6945559709597905
2.43E9                   0.43526259389533345      -0.7358798898579875
2.46E9                   0.367638424489418        -0.7712932384501285
2.49E9                   0.2971995154026805       -0.8005264626040088
2.52E9                   0.22450536424396095      -0.8233573037469804
2.55E9                   0.15013404576962835      -0.839613322196578
2.58E9                   0.07467772402835493      -0.8491740601501129
2.61E9                   -0.0012622896806433915   -0.8519725816402048
2.64E9                   -0.07708067958439813     -0.847996321561153
2.67E9                   -0.15217328573842936     -0.8372872970651614
2.7E9                    -0.2259421855452809      -0.8199417668775464
2.73E9                   -0.297800656338252       -0.7961094078663673
2.76E9                   -0.3671780009326914      -0.7659920512980761
2.79E9                   -0.4335242205078396      -0.7298420011193189
2.82E9                   -0.496314513274964       -0.6879599467493458
2.85E9                   -0.555053571024222       -0.6406924805668656
2.88E9                   -0.6092796408505136      -0.5884292324465776
2.91E9                   -0.6585683166203625      -0.5315996382263871
2.94E9                   -0.7025360246218595      -0.47066936379734226
2.97E9                   -0.740843168453886       -0.4061364120368824
3.0E9                    -0.773196900886236       -0.33852694436964975
3.03E9                   -0.7993534934111319      -0.2683908532994832
3.06E9                   -0.8191202782656486      -0.1962971261323535
3.09E9                   -0.8323571423470455      -0.1228290430853932
3.12E9                   -0.8389775574099517      -0.048579255657359544
3.15E9                   -0.8389491363838767      0.025855207358449386
3.18E9                   -0.8322937111691315      0.09987795807222591
3.21E9                   -0.8190869327351186      0.17289824366489023
3.24E9                   -0.7994573996071462      0.24433586933165452
3.27E9                   -0.7735853256466991      0.31362600408947167
3.3E9                    -0.741700762323855       0.3802238256535535
3.33E9                   -0.7040813944741937      0.4436089626045989
3.36E9                   -0.6610499318848365      0.5032896942825732
3.39E9                   -0.6129711221654912      0.5588068708647648
3.42E9                   -0.5602484135662612      0.6097375178902986
3.45E9                   -0.5033202998921246      0.6556980913187695
3.48E9                   -0.44265638376328326     0.6963473512582712
3.51E9                   -0.3787531992365035      0.7313888252540357
3.54E9                   -0.31212984003807165     0.7605728361753775
3.57E9                   -0.2433234447801727      0.7836980756859477
3.6E9                    -0.17288459465551664     0.8006127123001131
3.63E9                   -0.10137268103232842     0.8112150327419171
3.66E9                   -0.029351299442980053    0.815453625624869
3.69E9                   0.04261627718946137      0.8133271261071968
3.72E9                   0.11397149928324773      0.8048835482005627
3.75E9                   0.18416477546254342      0.7902192375179982
3.78E9                   0.25265950942241794      0.7694774820342887
3.81E9                   0.31893591550242206      0.7428468221210113
3.84E9                   0.3824946003525522       0.7105591029991318
3.87E9                   0.4428599105973048       0.6728873107619296
3.9E9                    0.4995830583874561       0.6301432253104818
3.93E9                   0.5522450443695137       0.5826749097544337
3.96E9                   0.6004593972510097       0.5308640388769325
3.99E9                   0.6438747390136037       0.475123054758425
4.02E9                   0.6821771680912484       0.4158921307976646
4.05E9                   0.7150924347039326       0.35363592904338415
4.08E9                   0.7423878692439421       0.2888401486714066
4.11E9                   0.7638740200254159       0.22200788144106376
4.14E9                   0.7794059617335126       0.15365580708712084
4.17E9                   0.788884247884393        0.08431027385788406
4.2E9                    0.7922554958448903       0.014503314230051951
4.23E9                   0.7895126072881848       -0.055231356595196596
4.26E9                   0.7806946373022552       -0.1243623192601978
4.29E9                   0.7658863302519525       -0.19236437581538646
4.32E9                   0.7452173400102318       -0.2587224010394957
4.35E9                   0.7188611479978114       -0.3229351044785906
4.38E9                   0.6870336871378054       -0.38451868956451934
4.41E9                   0.6499916755658348       -0.44301039447668966
4.44E9                   0.6080306623863884       -0.4979718951804426
4.47E9                   0.5614827892298436       -0.5489925465892541
4.5E9                    0.5107142752025435       -0.5956924345548075
4.53E9                   0.45612263813205534      -0.6377252098934805
4.56E9                   0.39813367080825945      -0.6747806763324576
4.59E9                   0.3371981961482849       -0.7065871070881411
4.62E9                   0.2737886295884119       -0.7329132691512025
4.65E9                   0.20839537908372155      -0.7535701402638697
4.68E9                   0.14152311292338277      -0.7684123094252038
4.71E9                   0.07368692261913844      -0.7773390564762913
4.74E9                   0.005408403696239539     -0.7802951080898053
4.77E9                   -0.06278832658566884     -0.7772710656514702
4.8E9                    -0.13038065637129534     -0.7683034960075233
4.83E9                   -0.19685152938065453     -0.7534746712326186
4.86E9                   -0.26169348852793173     -0.7329119415230392
4.89E9                   -0.3244126740367166      -0.7067867281661502
4.92E9                   -0.3845327290481212      -0.6753131315560981
4.95E9                   -0.44159856153013416     -0.6387461610436737
4.98E9                   -0.4951799125473957      -0.5973796064632196
5.01E9                   -0.5448746872880891      -0.5515435830232662
5.04E9                   -0.5903120158298987      -0.5016017897037391
5.07E9                   -0.6311550237990112      -0.4479485244494432
5.1E9                    -0.6671033058053597      -0.39100549660026623
5.13E9                   -0.6978951039151555      -0.3312184681516663
5.16E9                   -0.7233091956957145      -0.26905374349846733
5.19E9                   -0.7431664904289725      -0.204994516570442
5.22E9                   -0.7573313194954802      -0.13953708093323977
5.25E9                   -0.7657123940595714      -0.07318691549849592
5.28E9                   -0.768263397483981       -0.006454674736168799
5.31E9                   -0.7649831865057861      0.06014786915605818
5.34E9                   -0.7559155930667958      0.12611187296697038
5.37E9                   -0.7411488405873         0.19093539993119846
5.4E9                    -0.7208146052230351      0.2541272827345116
5.43E9                   -0.6950867583281887      0.31521084559947965
5.46E9                   -0.6641798207389649      0.37372747519885063
5.49E9                   -0.628347147200431       0.42924003840501196
5.52E9                   -0.5878788463603354      0.48133614389863644
5.55E9                   -0.5430994330867803      0.5296312365303681
5.58E9                   -0.4943652075748595      0.5737715018510083
5.61E9                   -0.4420613601908676      0.6134365465767305
5.64E9                   -0.3865988113854398      0.6483418118315287
5.67E9                   -0.3284108111079424      0.6782406720540387
5.7E9                    -0.2679493397683448      0.7029261759611646
5.73E9                   -0.20568136889350086     0.7222323986691931
5.76E9                   -0.1420850482188106      0.736035395092474
5.79E9                   -0.07764588233048447     0.7442537684673607
5.82E9                   -0.012852943470930711    0.7468488856433071
5.85E9                   0.051804855217479684     0.7438247751724567
5.88E9                   0.115842419898825        0.7352277347153854
5.91E9                   0.1787820699820392       0.7211456576793669
5.94E9                   0.24015705989508032      0.7017070749098478
5.97E9                   0.29951501038231393      0.677079901897805
6.0E9                    0.35642121871879984      0.6474698858757599
