% Model:              three_layers reality at 0.1mm.mph
% Version:            COMSOL 5.6.0.280
% Date:               Mar 3 2022, 11:48
% Table:              表格 1 - 全局计算 1
% freq (Hz)              real(emw.S11) (1)        imag(emw.S11) (1)
300000000                0.6190945334246799       -0.747606968153329
330000000                0.5514756599413726       -0.7983946622837932
360000000                0.4800507811944309       -0.8429083403117774
390000000                0.40514086665127214      -0.8810893186448073
420000000                0.32729772255364975      -0.9126650157123137
450000000                0.24709341186704015      -0.9374123912205514
480000000                0.16511911249545363      -0.9551568520794022
510000000                0.08197985998052443      -0.9657746649641251
540000000                -0.0017100385176970435   -0.969194193517561
570000000                -0.08533166082712676     -0.9653966825933872
600000000                -0.16826616441981895     -0.9544165981801846
630000000                -0.24989947972502613     -0.9363415312102824
660000000                -0.3296269723754078      -0.9113116723277219
690000000                -0.4068580352458255      -0.8795188667677124
720000000                -0.4810205769961664      -0.8412052594007868
750000000                -0.5515653730500015      -0.7966615422164476
780000000                -0.6179702444847511      -0.7462248192835559
810000000                -0.6797440330826907      -0.6902761060368401
840000000                -0.7364303400152264      -0.6292374835573791
870000000                -0.7876109996392103      -0.5635689297877408
900000000                -0.8329092605556178      -0.493764852439605
930000000                -0.8719926473162606      -0.420350352483412
960000000                -0.9045754812933439      -0.3438772459951689
990000000                -0.9304210392103001      -0.26491987768001035
1020000000               -0.9493433325686595      -0.18407075871314768
1050000000               -0.9612084936324279      -0.10193606392070037
1080000000               -0.9659357568854147      -0.01913102461550207
1110000000               -0.9634980284430604      0.06372474586246935
1140000000               -0.9539220393487281      0.14601195636964107
1170000000               -0.9372880821340369      0.22711633486852076
1200000000               -0.9137293334541662      0.306433279393743
1230000000               -0.8834307694508535      0.38337242651896186
1260000000               -0.846627683155055       0.4573621019588651
1290000000               -0.8036038175923965      0.5278536164508946
1320000000               -0.7546891303099605      0.5943253751499669
1350000000               -0.7002572086862886      0.6562867678353081
1380000000               -0.6407223580482658      0.7132818103251739
1410000000               -0.5765363868928092      0.7648925098165352
1440000000               -0.5081851160807033      0.8107419291015351
1470000000               -0.43618464049895933     0.8504969275313548
1500000000               -0.36107737417693697     0.8838705589822649
1530000000               -0.28342790997034417     0.9106241108019456
1560000000               -0.20381872751502508     0.9305687699034074
1590000000               -0.12284578291519921     0.9435669058493472
1620000000               -0.04111401461363258     0.9495329636294813
1650000000               0.04076719997825578      0.9484339620035206
1680000000               0.12218860225847479      0.9402895963157549
1710000000               0.20254559102081002      0.9251719477691607
1740000000               0.2812427072935679       0.9032048039768272
1770000000               0.35769803331159217      0.874562598484007
1800000000               0.4313474733371999       0.8394689796473321
1830000000               0.5016488858111174       0.7981950218865593
1860000000               0.568086037853967        0.751057094522164
1890000000               0.6301723542500497       0.6984144059578733
1920000000               0.6874544351955105       0.6406662429027887
1950000000               0.7395153189845769       0.5782489261083354
1980000000               0.7859774674608005       0.5116325061386164
2010000000               0.8265054544544441       0.44131722408334606
2040000000               0.860808339586431        0.3678297634066854
2070000000               0.8886417120108008       0.2917193204405865
2100000000               0.9098093908842433       0.21355352224100718
2130000000               0.924164772032313        0.13391422090879454
2.16E9                   0.9316118123988094       0.05339319455981825
2.19E9                   0.9321056465107773       -0.0274122147241346
2.22E9                   0.9256528315388878       -0.10790349508164739
2.25E9                   0.912311220141416        -0.1874853603790603
2.28E9                   0.8921894626713969       -0.2655701164161511
2.31E9                   0.865446142807117        -0.34158196762323734
2.34E9                   0.8322885529210002       -0.4149612344599756
2.37E9                   0.7929711177799614       -0.4851684527404893
2.4E9                    0.7477934767417846       -0.5516883272431163
2.43E9                   0.6970982360777924       -0.6140335127570593
2.46E9                   0.6412684038496792       -0.6717481961814394
2.49E9                   0.5807245205194764       -0.7244114527160652
2.52E9                   0.5159214997812164       -0.7716403472098641
2.55E9                   0.44734519909474035      -0.8130927478541715
2.58E9                   0.3755087478492291       -0.848469818122975
2.61E9                   0.30094867432345646      -0.8775181567372548
2.64E9                   0.22422088263837062      -0.9000315701259525
2.67E9                   0.14589652986790133      -0.9158524827020993
2.7E9                    0.06655783544218359      -0.9248730058697476
2.73E9                   -0.013206167617519072    -0.927035683217625
2.76E9                   -0.09280394205444083     -0.9223339095753126
2.79E9                   -0.1716458095510369      -0.9108120009987637
2.82E9                   -0.24914834022263888     -0.892564887232637
2.85E9                   -0.32473872414265437     -0.8677374083767051
2.88E9                   -0.3978590750803874      -0.8365232136822194
2.91E9                   -0.4679706210626747      -0.79916327316819
2.94E9                   -0.5345577426998979      -0.7559440197681325
2.97E9                   -0.5971318266804467      -0.7071951421873142
3.0E9                    -0.655234905707453       -0.6532870493839931
3.03E9                   -0.7084430585826468      -0.5946280281670406
3.06E9                   -0.7563695453459864      -0.5316611169483745
3.09E9                   -0.7986676547020486      -0.4648607196916844
3.12E9                   -0.8350332420877614      -0.39472898656578836
3.15E9                   -0.8652069392733136      -0.3217919893315941
3.18E9                   -0.8889760187807746      -0.24659572124101603
3.21E9                   -0.9061758989607869      -0.16970195302491597
3.24E9                   -0.9166912786733958      -0.09168397751165502
3.27E9                   -0.9204568935181078      -0.01312227629281409
3.3E9                    -0.9174578886155951      0.06539985724566355
3.33E9                   -0.9077298062043548      0.1433007043237341
3.36E9                   -0.8913581894608053      0.2200044821274783
3.39E9                   -0.8684778070419672      0.2949456462719667
3.42E9                   -0.8392715059914325      0.3675731009895875
3.45E9                   -0.8039687035781239      0.43735428462871306
3.48E9                   -0.7628435315550528      0.503779099289405
3.51E9                   -0.7162126490347901      0.5663636549483891
3.54E9                   -0.6644327427059663      0.6246538000744079
3.57E9                   -0.6078977357267707      0.6782284125427469
3.6E9                    -0.5470357284246264      0.7267024272957304
3.63E9                   -0.48230569623267305     0.7697295790455387
3.66E9                   -0.41419397181154993     0.8070048411507242
3.69E9                   -0.34321053951481145     0.8382665445073783
3.72E9                   -0.26988517172481025     0.8632981627958819
3.75E9                   -0.19476343700354823     0.8819297534020264
3.78E9                   -0.11840261061901369     0.8940390458436336
3.81E9                   -0.041367518332595846    0.8995521721591904
3.84E9                   0.035773655709374276     0.8984440362240271
3.87E9                   0.11245356593844172      0.8907383213564248
3.9E9                    0.18810987629461576      0.876507138049456
3.93E9                   0.26218937399669695      0.8558703162828025
3.96E9                   0.33415199576399585      0.8289943496102803
3.99E9                   0.40347473636479186      0.7960910011997836
4.02E9                   0.4696554104399219       0.7574155851184581
4.05E9                   0.5322162405433234       0.7132649391401502
4.08E9                   0.5907072464672279       0.66397510800282
4.11E9                   0.6447094139427769       0.6099187579424471
4.14E9                   0.6938376236023189       0.5515023444455289
4.17E9                   0.7377433237332991       0.48916305538740873
4.2E9                    0.7761169321497587       0.4233655516226895
4.23E9                   0.808689953502995        0.35459852743283177
4.26E9                   0.8352367994863557       0.2833711135467394
4.29E9                   0.855576300193215        0.21020914716472314
4.32E9                   0.8695728969211096       0.13565133448363215
4.35E9                   0.8771375089543927       0.06024533268217817
4.38E9                   0.8782280696792963       -0.015456221599544684
4.41E9                   0.8728497297012627       -0.09089971018904186
4.44E9                   0.8610547266227514       -0.16553453140393093
4.47E9                   0.8429419224697714       -0.23881707214896167
4.5E9                    0.8186560110252483       -0.31021462793973303
4.53E9                   0.7883863987691356       -0.3792092444866401
4.56E9                   0.7523657650700308       -0.4453014537057808
4.59E9                   0.7108683098140223       -0.5080138767516975
4.62E9                   0.6642076995656148       -0.566894666690166
4.65E9                   0.6127347263455324       -0.6215207643735612
4.68E9                   0.5568346962202269       -0.6715009422208575
4.71E9                   0.49692456739925017      -0.7164786128385308
4.74E9                   0.4334498598493335       -0.7561343816174839
4.77E9                   0.3668813598752831       -0.7901883251846079
4.8E9                    0.29771164410924394      -0.8184019800651149
4.83E9                   0.22645144809451825      -0.8405800280515104
4.86E9                   0.15362590475616875      -0.8565716668025956
4.89E9                   0.07977067911600529      -0.8662716555529315
4.92E9                   0.005428025988998542     -0.8696210275713079
4.95E9                   -0.06885720108077002     -0.8666074626415553
4.98E9                   -0.14254156069352517     -0.8572653151192923
5.01E9                   -0.21508702390961432     -0.841675295639772
5.04E9                   -0.2859649336178022      -0.8199638074422939
5.07E9                   -0.3546598918737283      -0.7923019413524446
5.1E9                    -0.42067354468889184     -0.7589041366181575
5.13E9                   -0.4835282343391085      -0.7200265180112343
5.16E9                   -0.5427704905565728      -0.6759649227257448
5.19E9                   -0.5979743336815949      -0.6270526335117355
5.22E9                   -0.648744365252999       -0.5736578368195643
5.25E9                   -0.6947186238149146      -0.5161808264546496
5.28E9                   -0.7355711859978205      -0.4550509743450857
5.31E9                   -0.7710144946276766      -0.39072349078132196
5.34E9                   -0.8008013968205033      -0.3236759975478084
5.37E9                   -0.8247268762196681      -0.2544049387049561
5.4E9                    -0.8426294648655571      -0.18342185613106304
5.43E9                   -0.8543923226574119      -0.1112495588157429
5.46E9                   -0.8599439752780862      -0.03841821705537466
5.49E9                   -0.8592587051689089      0.034538586211176885
5.52E9                   -0.8523565939298092      0.10708781415116334
5.55E9                   -0.8393032183921051      0.17870091233561894
5.58E9                   -0.8202090062570003      0.24885769111750378
5.61E9                   -0.7952282604825526      0.3170501241457679
5.64E9                   -0.7645578644120069      0.3827860351487041
5.67E9                   -0.7284356814234104      0.445592647995956
5.7E9                    -0.6871386639584736      0.5050199768582999
5.73E9                   -0.6409806867680887      0.560644035439651
5.76E9                   -0.5903101194397292      0.6120698442481147
5.79E9                   -0.5355071543825287      0.6589342144093394
5.82E9                   -0.47698090902582896     0.700908286164812
5.85E9                   -0.41516632517467955     0.7376998007862468
5.88E9                   -0.35052089216574916     0.7690550878768302
5.91E9                   -0.28352122329317275     0.7947607543729834
5.94E9                   -0.2146595153239062      0.814645066655892
5.97E9                   -0.14443991996359193     0.8285790212656757
6.0E9                    -0.07337485415768068     0.8364771025133235
