% Model:              three_layers reality at 0.1mm.mph
% Version:            COMSOL 5.6.0.280
% Date:               Mar 2 2022, 14:31
% Table:              表格 1 - 全局计算 1
% freq (Hz)              real(emw.S11) (1)        imag(emw.S11) (1)
300000000                0.6310769280014047       -0.7598032775414847
330000000                0.5623738755256661       -0.812388060933118
360000000                0.48935061609815894      -0.8587776428519682
390000000                0.4125638765917911       -0.8986187551087209
420000000                0.33259923450172996      -0.9316079342500455
450000000                0.2500666744010621       -0.957493897287948
480000000                0.16559594807343336      -0.9760795183325778
510000000                0.07983177310066553      -0.9872233914497119
540000000                -0.006571093023905306    -0.990840967016792
570000000                -0.09295286666811009     -0.9869052519161727
600000000                -0.17865380050047452     -0.9754470665811685
630000000                -0.2630192561868886      -0.9565548553069685
660000000                -0.3454047475239181      -0.9303740494748262
690000000                -0.42518091446449857     -0.8971059868397386
720000000                -0.5017383883880734      -0.8570063936561424
750000000                -0.5744925100079533      -0.8103834397812341
780000000                -0.6428878614625844      -0.7575953807222113
810000000                -0.7064025758316148      -0.6990478039909638
840000000                -0.7645523889332522      -0.6351905003920466
870000000                -0.8168943996865266      -0.5665139845828894
900000000                -0.863030508257206       -0.4935456917374957
930000000                -0.9026105030192652      -0.4168458808249249
960000000                -0.9353347709236589      -0.3370032768792235
990000000                -0.9609566084669829      -0.25463048770177854
1020000000               -0.979284114195905       -0.1703592318909234
1050000000               -0.9901816469963438      -0.08483541726716566
1080000000               -0.9935708382913145      0.0012858899528939277
1110000000               -0.9894311501635503      0.08734556441327486
1140000000               -0.977799975243959       0.17268554707521064
1170000000               -0.9587722783223435      0.2566539551707839
1200000000               -0.932499783519409       0.338610134971444
1230000000               -0.8991897148201379      0.4179296161898589
1260000000               -0.8591031016397136      0.49400892792358797
1290000000               -0.8125526646273129      0.5662702377396107
1320000000               -0.759900300616605       0.6341657767398218
1350000000               -0.7015541887563104      0.6971820159713036
1380000000               -0.6379655430167479      0.7548435616725245
1410000000               -0.5696250388662972      0.8067167397008469
1440000000               -0.49705894468906264     0.8524128420628723
1470000000               -0.42082499020422603     0.8915910119714328
1500000000               -0.3415080065027077      0.9239607466371379
1530000000               -0.259715373286913       0.9492840007414254
1560000000               -0.1760723104504539      0.967376876699791
1590000000               -0.09121705162872457     0.9781108914699508
1620000000               -0.005795938077740282    0.9814138130517085
1650000000               0.07954152891469768      0.977270063359528
1680000000               0.1641476387684179       0.9657206875013857
1710000000               0.24738138790389536      0.9468628928560752
1740000000               0.32861332453743763      0.9208491645592197
1770000000               0.40723028617102736      0.8878859670737704
1800000000               0.48263999498073284      0.8482320445143806
1830000000               0.5542754780220863       0.8021963351262604
1860000000               0.621599280749512        0.7501355179293179
1890000000               0.6841074440913744       0.6924512120840348
1920000000               0.7413332176910985       0.6295868515479913
1950000000               0.7928504837516123       0.5620242598657823
1980000000               0.8382768684762454       0.49027995164410554
2010000000               0.8772765205285193       0.4149011888614528
2040000000               0.9095625384773016       0.33646182161847693
2070000000               0.9348990319828016       0.2555579438956887
2100000000               0.9531028042270187       0.17280339565663438
2130000000               0.9640446458974588       0.08882514271464956
2.16E9                   0.9676502334763403       0.004258565596169449
2.19E9                   0.9639006264449368       -0.0802573125169171
2.22E9                   0.9528323583853123       -0.16408462974768545
2.25E9                   0.9345371153542559       -0.24659149254227164
2.28E9                   0.9091609916250427       -0.32715675360197105
2.31E9                   0.8769033109246241       -0.4051747194004336
2.34E9                   0.8380150076221362       -0.48005973049973377
2.37E9                   0.7927965843448409       -0.5512505450271161
2.4E9                    0.7415956971617295       -0.6182144624622476
2.43E9                   0.684804444561268        -0.6804511616764443
2.46E9                   0.622856422795617        -0.7374962772798865
2.49E9                   0.556223559398757        -0.7889247591192431
2.52E9                   0.4854126895439169       -0.8343540308004551
2.55E9                   0.41096183680025433      -0.873446910495426
2.58E9                   0.3334361952422571       -0.9059142263223899
2.61E9                   0.2534238494847541       -0.9315170636729619
2.64E9                   0.17153128858214084      -0.9500686062726887
2.67E9                   0.08837876966233278      -0.9614355551566144
2.7E9                    0.004595579242532466     -0.9655391219593992
2.73E9                   -0.07918476775653255     -0.962355597156275
2.76E9                   -0.16232935480909189     -0.9519164944921097
2.79E9                   -0.24421068175776048     -0.9343082732584588
2.82E9                   -0.32421143897652804     -0.9096716411870864
2.85E9                   -0.4017292024627188      -0.8782004428099693
2.88E9                   -0.47618101437757565     -0.8401401408434683
2.91E9                   -0.5470078136446825      -0.7957859012933356
2.94E9                   -0.6136786820777108      -0.7454802961236348
2.97E9                   -0.6756948723132925      -0.6896106407133167
3.0E9                    -0.7325935855589149      -0.6286059863753906
3.03E9                   -0.7839514688517382      -0.5629337913450202
3.06E9                   -0.8293878038492594      -0.49309629637314645
3.09E9                   -0.8685673615336387      -0.4196266338311452
3.12E9                   -0.9012029001559521      -0.3430847013880777
3.15E9                   -0.9270572866452842      -0.26405283350304937
3.18E9                   -0.9459452249787996      -0.1831313056704128
3.21E9                   -0.9577345784192061      -0.10093370762478263
3.24E9                   -0.9623472759631172      -0.018082222771159905
3.27E9                   -0.9597597968833513      0.06479714828422771
3.3E9                    -0.9500032307630972      0.14707938206418564
3.33E9                   -0.9331629138428195      0.22814520638004737
3.36E9                   -0.9093776458845074      0.30738581661483294
3.39E9                   -0.8788384949865343      0.3842074972071197
3.42E9                   -0.8417872010135219      0.45803611196288285
3.45E9                   -0.7985141913630868      0.5283214281133931
3.48E9                   -0.7493562259389472      0.594541240048667
3.51E9                   -0.6946936913247583      0.6562052601699746
3.54E9                   -0.6349475672842981      0.7128587461083028
3.57E9                   -0.570576091847914       0.7640858357537212
3.6E9                    -0.5020711542733828      0.8095125642452384
3.63E9                   -0.4299544477407249      0.8488095404359213
3.66E9                   -0.35477341579680766     0.8816942640279353
3.69E9                   -0.2770970280412011      0.9079330685747641
3.72E9                   -0.1975114211743918      0.9273426796551612
3.75E9                   -0.11661544198147206     0.9397913813643252
3.78E9                   -0.03501612845179985     0.9451997882137196
3.81E9                   0.046675835420729506     0.9435412233188084
3.84E9                   0.12785065696500694      0.9348417074655807
3.87E9                   0.20790393236392823      0.9191795669137437
3.9E9                    0.2862410753275693       0.8966846700718215
3.93E9                   0.3622816507055765       0.867537304145753
3.96E9                   0.43546358911116023      0.8319667025627493
3.99E9                   0.5052472593138199       0.7902492331072628
4.02E9                   0.5711193743809396       0.7427062563024265
4.05E9                   0.6325967058487276       0.6897016644638907
4.08E9                   0.6892295785110343       0.6316391144277076
4.11E9                   0.7406051177009104       0.5689589709137309
4.14E9                   0.7863502219009355       0.5021349819265576
4.17E9                   0.826134235859713        0.4316707119883648
4.2E9                    0.859671303231044        0.35809576212196026
4.23E9                   0.8867223818811265       0.2819618076512092
4.26E9                   0.9070969092913729       0.2038384855284841
4.29E9                   0.9206541091106818       0.1243091626810205
4.32E9                   0.9273039327568728       0.04396661604805909
4.35E9                   0.9270076320004219       -0.0365913457245331
4.38E9                   0.9197779600027591       -0.11676628946978539
4.41E9                   0.9056789996651372       -0.19596356401302792
4.44E9                   0.8848256197651321       -0.273596675977503
4.47E9                   0.8573825614016393       -0.34909160429801767
4.5E9                    0.823563159771188        -0.42189102236645565
4.53E9                   0.7836277091664198       -0.4914583965953391
4.56E9                   0.7378814821725407       -0.5572819305548857
4.59E9                   0.6866724172103557       -0.6188783246692358
4.62E9                   0.6303884916346303       -0.6757963229311813
4.65E9                   0.5694548004047046       -0.7276200200487319
4.68E9                   0.5043303626359389       -0.7739719048821286
4.71E9                   0.4355046799905605       -0.8145156186286698
4.74E9                   0.36349407182863447      -0.8489584086691766
4.77E9                   0.28883781270672204      -0.8770532608860148
4.8E9                    0.21209409839764926      -0.8986006946467828
4.83E9                   0.13383586788845286      -0.9134502055814254
4.86E9                   0.05464651072006781      -0.921501342444204
4.89E9                   -0.024884508438741373    -0.9227044062054968
4.92E9                   -0.10416607356791197     -0.9170607624347982
4.95E9                   -0.18260985286352477     -0.904622761975987
4.98E9                   -0.25963470849599324     -0.8854932696249206
5.01E9                   -0.3346710429875204      -0.8598248055311002
5.04E9                   -0.4071650460217344      -0.8278183088968532
5.07E9                   -0.47658280806643155     -0.7897215376944017
5.1E9                    -0.5424142703334044      -0.7458271212253391
5.13E9                   -0.6041769842438229      -0.6964702839163872
5.16E9                   -0.6614196562764394      -0.642026259066097
5.19E9                   -0.7137254555543402      -0.5829074108060219
5.22E9                   -0.7607150612987658      -0.519560082587636
5.25E9                   -0.8020494261406231      -0.452461192137104
5.28E9                   -0.8374322306063994      -0.3821145966006678
5.31E9                   -0.8666120054780473      -0.3090472567864721
5.34E9                   -0.8893839028415832      -0.23380523430463906
5.37E9                   -0.905591102784201       -0.15694955830355156
5.4E9                    -0.915125849209093       -0.07905199859041992
5.43E9                   -0.9179301134329982      -6.907796765450416E-4
5.46E9                   -0.9139958872256906      0.0775537328604224
5.49E9                   -0.9033651079636205      0.15510334498432501
5.52E9                   -0.8861292185373574      0.23138631827607137
5.55E9                   -0.862428364577029       0.30584159793096044
5.58E9                   -0.8324502322064126      0.37792295580317686
5.61E9                   -0.7964285312601697      0.44710301794116786
5.64E9                   -0.7546411318974272      0.5128771442402148
5.67E9                   -0.7074078667618973      0.5747671267362587
5.7E9                    -0.6550880162507872      0.6323246730382245
5.73E9                   -0.5980775004069293      0.6851346434623478
5.76E9                   -0.5368058063355868      0.7328180148626664
5.79E9                   -0.4717326832454757      0.77503455061366
5.82E9                   -0.4033446373693928      0.8114851629075224
5.85E9                   -0.332151256366817       0.8419139586131559
5.88E9                   -0.2586813894255304      0.8661099619463594
5.91E9                   -0.18347920700714582     0.8839085068001913
5.94E9                   -0.10710016448388196     0.8951922902529161
5.97E9                   -0.03010689601378207     0.8998920784904367
6.0E9                    0.04693493197022001      0.8979870578058675
