% Model:              cali 2.99 1.02mm.mph
% Version:            COMSOL 5.6.0.280
% Date:               Feb 21 2022, 19:26
% Table:              表格 1 - 全局计算 1
% freq (Hz)              real(emw.S11) (1)        imag(emw.S11) (1)
300000000                0.5077396323574977       -0.8407286904397622
330000000                0.4187691723628465       -0.8876982175814302
360000000                0.32555841058016494      -0.9252219372207645
390000000                0.22911637582946887      -0.9529303541300735
420000000                0.13048235090359075      -0.9705626695908202
450000000                0.03071404351447704      -0.9779689595245368
480000000                -0.06912434998496124     -0.9751110487224243
510000000                -0.16797404335186955     -0.9620620854982516
540000000                -0.2647933768951787      -0.9390048372523845
570000000                -0.35856921321627333     -0.9062287437483653
600000000                -0.4483278789644993      -0.8641257800860187
630000000                -0.5331455274708962      -0.8131851957989286
660000000                -0.6121578068006731      -0.7539872095484305
690000000                -0.6845687283404311      -0.6871957507106767
720000000                -0.7496586427977441      -0.6135503496706506
750000000                -0.8067912436099892      -0.5338572873072989
780000000                -0.855419531188371       -0.44898012133651205
810000000                -0.8950906852807652      -0.3598297128874928
840000000                -0.9254498070386398      -0.26735388043720965
870000000                -0.9462425062261816      -0.17252681077664728
900000000                -0.9573163224678183      -0.07633835808845348
930000000                -0.9586209821234951      0.020216637747797712
960000000                -0.9502075033840582      0.11614888149177748
990000000                -0.9322261714709189      0.21048486781559786
1020000000               -0.9049234121636416      0.30227670099107057
1050000000               -0.8686375949059674      0.3906113317422273
1080000000               -0.8237937967644637      0.4746190139918907
1110000000               -0.7708975608247903      0.5534806939955662
1140000000               -0.7105277119603365      0.6264338406920336
1170000000               -0.6433284471094463      0.6927757648662223
1200000000               -0.5700015751533225      0.7518624339159335
1230000000               -0.4913024132449446      0.8030986165691325
1260000000               -0.40805306416771386     0.8459124039534562
1290000000               -0.32122226659786945     0.8797188744211486
1320000000               -0.23218072415780205     0.9040131755416756
1350000000               -0.14281449872876664     0.919164282629013
1380000000               -0.05367246176014238     0.9269372124135566
1410000000               0.036499158675304066     0.927263790266593
1440000000               0.1270819944184689       0.9186345768034011
1470000000               0.21648631290445303      0.9007286830612085
1500000000               0.30347269033782587      0.8738867400560854
1530000000               0.3870934150662471       0.8385724844598041
1560000000               0.4665380174006467       0.7952798646378345
1590000000               0.5410747232601175       0.7445376773053944
1620000000               0.6100349778582637       0.6869186679411505
1650000000               0.6728119831754715       0.6230426003175059
1680000000               0.7288632831529672       0.5535748626948239
1710000000               0.7777141636715478       0.47922251182845577
1740000000               0.8189607955398096       0.4007289305142715
1770000000               0.8522727603454435       0.31886780295311423
1800000000               0.8773948644702703       0.23443689609405138
1830000000               0.8941483051861635       0.14825208530215475
1860000000               0.9024314785932206       0.061142123870418355
1890000000               0.9022212208632759       -0.02605524701010617
1920000000               0.8935764269040647       -0.11249542901176873
1950000000               0.8766482385120651       -0.19732859352976778
1980000000               0.8517031389530303       -0.27970881837705297
2010000000               0.8191567908041553       -0.35883519699703176
2040000000               0.7795688402522452       -0.4340550546234164
2070000000               0.7334925803154366       -0.5049580251273448
2100000000               0.6812605094409829       -0.5712316948345916
2130000000               0.6230750550603059       -0.6323649401656642
2.16E9                   0.5593105724571246       -0.6876575574609904
2.19E9                   0.4905843880562044       -0.7364481513094662
2.22E9                   0.41764815978999725      -0.7782246883000911
2.25E9                   0.3413033233246207       -0.8126195887703948
2.28E9                   0.2623685375865513       -0.839387507416671
2.31E9                   0.1816643088774077       -0.8583963915646211
2.34E9                   0.09999362343590655      -0.8696253005665368
2.37E9                   0.01811494657615196      -0.87315536214018
2.4E9                    -0.06328319440911603     -0.8691437981690365
2.43E9                   -0.14358952494632576     -0.857782908063107
2.46E9                   -0.2222485629092983      -0.8392617517041447
2.49E9                   -0.2987192696382467      -0.8137530303351872
2.52E9                   -0.3724386520353508      -0.7814320574528335
2.55E9                   -0.44281011080238236     -0.7425127880093099
2.58E9                   -0.509216970414954       -0.6972792113361631
2.61E9                   -0.5710482510498539      -0.6461006961707936
2.64E9                   -0.6277241392037853      -0.5894325980973153
2.67E9                   -0.6787157964921022      -0.5278088242601192
2.7E9                    -0.7235601755732479      -0.46183183968061225
2.73E9                   -0.7618729500281645      -0.39216193168495384
2.76E9                   -0.7933621047979991      -0.31950386443611645
2.79E9                   -0.8178415601954033      -0.244586384366822
2.82E9                   -0.8352383415572938      -0.16813035681509883
2.85E9                   -0.8455808585784426      -0.09080842544799035
2.88E9                   -0.8489587656188621      -0.01321352287406984
2.91E9                   -0.8454652805428259      0.06413777323663435
2.94E9                   -0.8351574148116354      0.1407591954149931
2.97E9                   -0.818063729156773       0.2161354400081657
3.0E9                    -0.7942299708870886      0.2896907457449535
3.03E9                   -0.7637668326844049      0.36079762203332777
3.06E9                   -0.7268760657131126      0.4288078705365605
3.09E9                   -0.6838544462125222      0.4930850810606844
3.12E9                   -0.6350849003897383      0.5530290544125197
3.15E9                   -0.581022923933469       0.608091096006554
3.18E9                   -0.5221829859166637      0.6577823611877148
3.21E9                   -0.45912687579492295     0.7016780566322444
3.24E9                   -0.3924541638814554      0.7394198075070422
3.27E9                   -0.3227940347522412      0.7707175866770121
3.3E9                    -0.2507975071343993      0.7953517259236778
3.33E9                   -0.177129182635281       0.8131748707702857
3.36E9                   -0.10245798081154121     0.8241132916713059
3.39E9                   -0.02744675947448254     0.8281666946737204
3.42E9                   0.047258732075630056     0.8254056187910157
3.45E9                   0.12104053730065055      0.8159657493837239
3.48E9                   0.19331734077958418      0.8000390662488702
3.51E9                   0.26354992538750716      0.7778626039431114
3.54E9                   0.3312421270340957       0.7497064970472923
3.57E9                   0.39593715385136596      0.7158635902585258
3.6E9                    0.4572104700012911       0.6766428870919922
3.63E9                   0.5146617411136161       0.6323682466311076
3.66E9                   0.5679089754549128       0.5833820325210999
3.69E9                   0.616587345583929        0.5300514382907099
3.72E9                   0.6603531986516163       0.47277403704154425
3.75E9                   0.6988913875212348       0.41197961083376794
3.78E9                   0.7319226719928086       0.3481273498095581
3.81E9                   0.7592083531704926       0.2816998833412038
3.84E9                   0.7805511696432706       0.21319695941536937
3.87E9                   0.7957936432620976       0.14313127782991555
3.9E9                    0.8048163117646738       0.07202735451386294
3.93E9                   0.8075380508783084       4.2239057946745435E-4
3.96E9                   0.8039193009161881       -0.07113297951037206
3.99E9                   0.7939674211161851       -0.14207602182644335
4.02E9                   0.7777424793930809       -0.2118362126945102
4.05E9                   0.7553618176470849       -0.27984222365630423
4.08E9                   0.7270023872082775       -0.34553055432155216
4.11E9                   0.6929006087766763       -0.40835465696617695
4.14E9                   0.6533500337245389       -0.46779365794505035
4.17E9                   0.6086972929686895       -0.5233601514872347
4.2E9                    0.5593368058033613       -0.5746068374856208
4.23E9                   0.5057046134863521       -0.6211319358015894
4.26E9                   0.4482715996509121       -0.6625833555181199
4.29E9                   0.38753631272786215      -0.6986615822310784
4.32E9                   0.3240176236629013       -0.7291212276310406
4.35E9                   0.25824751242731664      -0.75377120894185
4.38E9                   0.19076433634012277      -0.772473612840828
4.41E9                   0.12210694304521859      -0.7851414403594286
4.44E9                   0.05280991679744194      -0.791735586148455
4.47E9                   -0.016599915731938707    -0.7922615209391437
4.5E9                    -0.08560581080729933     -0.7867661689487342
4.53E9                   -0.15370256633973814     -0.7753353800630174
4.56E9                   -0.22039755827451676     -0.7580922067249269
4.59E9                   -0.28521182743755674     -0.7351959582871223
4.62E9                   -0.34768159524889414     -0.7068417884150494
4.65E9                   -0.40736039802554713     -0.673260436479274
4.68E9                   -0.4638218060684805      -0.6347177293775993
4.71E9                   -0.5166625068610418      -0.5915135542341842
4.74E9                   -0.5655054403252103      -0.5439801916777949
4.77E9                   -0.6100026998852188      -0.49248008419788647
4.8E9                    -0.6498380314838846      -0.43740323721472213
4.83E9                   -0.684728915622667       -0.3791644755211387
4.86E9                   -0.7144283410085075      -0.31820071174693354
4.89E9                   -0.7387264305438044      -0.25496826753255036
4.92E9                   -0.7574520538285863      -0.18994017434744612
4.95E9                   -0.7704744771729288      -0.1236033101461424
4.98E9                   -0.7777049985130239      -0.056455218467530766
5.01E9                   -0.7790984254999659      0.010999495835760993
5.04E9                   -0.7746542051006354      0.07825321356941572
5.07E9                   -0.7644170142175911      0.14479971024766777
5.1E9                    -0.7484766725296021      0.2101387596069888
5.13E9                   -0.7269673285375471      0.2737807138432941
5.16E9                   -0.7000659738839733      0.3352508456061784
5.19E9                   -0.6679904281042719      0.3940932939526996
5.22E9                   -0.630996976792522       0.4498745499460632
5.25E9                   -0.5893778277030419      0.5021865128710165
5.28E9                   -0.5434584840591195      0.5506492089314333
5.31E9                   -0.4935950554261103      0.5949132722725129
5.34E9                   -0.4401714689462007      0.6346622513974315
5.37E9                   -0.3835965253793157      0.6696147495570783
5.4E9                    -0.3243007606599755      0.6995263626009683
5.43E9                   -0.2627331074523241      0.7241913557564598
5.46E9                   -0.1993573858663588      0.7434440216313782
5.49E9                   -0.13464867872341807     0.7571596786207043
5.52E9                   -0.0690896609024751      0.765255295331674
5.55E9                   -0.003166951637763482    0.767689757481522
5.58E9                   0.06263245936944521      0.7644638219098181
5.61E9                   0.12782469582603095      0.7556198167052918
5.64E9                   0.19193241347002277      0.7412411348549356
5.67E9                   0.2544882049715099       0.7214515279846294
5.7E9                    0.3150380334354134       0.6964141515721719
5.73E9                   0.3731446864528806       0.6663302743844873
5.76E9                   0.4283911725742286       0.6314375711920024
5.79E9                   0.48038393040248784      0.5920079724519655
5.82E9                   0.5287557157961642       0.548345121445621
5.85E9                   0.5731680752005041       0.5007815514665984
5.88E9                   0.6133133797606928       0.4496757197479081
5.91E9                   0.6489164578820432       0.395409019669418
5.94E9                   0.6797359055008685       0.3383828515980028
5.97E9                   0.7055651677198824       0.2790157817416169
6.0E9                    0.7262334748327682       0.2177407710282947
