% Model:              three_layers reality at 0.1mm.mph
% Version:            COMSOL 5.6.0.280
% Date:               Mar 9 2022, 11:06
% Table:              表格 1 - 全局计算 1
% freq (Hz)              real(emw.S11) (1)        imag(emw.S11) (1)
300000000                0.558545615997995        -0.7493077327055898
330000000                0.48800159847750707      -0.795416054098647
360000000                0.41383647739139634      -0.8350374989255418
390000000                0.33657393569234273      -0.8678942063066833
420000000                0.2568127138354669       -0.8937315286624303
450000000                0.17517273956573975      -0.9123515141236109
480000000                0.09229397227018908      -0.9236116756795273
510000000                0.008830056532923082     -0.9274273031735668
540000000                -0.07455752211773614     -0.923772735422462
570000000                -0.1572052452208338      -0.9126820658362723
600000000                -0.2384533323987822      -0.894249295161883
630000000                -0.31765145751974605     -0.868627938274911
660000000                -0.3941643809549139      -0.8360300905899223
690000000                -0.46737746169340666     -0.7967249607244342
720000000                -0.5367020074373599      -0.7510368783732395
750000000                -0.6015804169192174      -0.6993427920008726
780000000                -0.6614910697268725      -0.6420692729433496
810000000                -0.7159529153023202      -0.5796890511294518
840000000                -0.7645297168343081      -0.5127171093747899
870000000                -0.8068339052088714      -0.44170637192000983
900000000                -0.8425300031544238      -0.3672430253143672
930000000                -0.8713375820002988      -0.2899415164037342
960000000                -0.8930337191200313      -0.210439275694316
990000000                -0.9074549286633458      -0.12939121852605676
1020000000               -0.914498544618763       -0.04746407937323998
1050000000               -0.9141235410802315      0.03466936294719285
1080000000               -0.9063507815848425      0.11633610928539002
1110000000               -0.891262695883201       0.19686875475293264
1140000000               -0.8690023897090257      0.27561123253858144
1170000000               -0.8397721995722416      0.3519244298291553
1200000000               -0.8038317113284266      0.42519161867569777
1230000000               -0.7614952673517482      0.494823648464614
1260000000               -0.7131289931535018      0.560263849615528
1290000000               -0.6591473786908759      0.6209926034870064
1320000000               -0.6000094552835992      0.6765315366949634
1350000000               -0.5362146115039316      0.7264473050396063
1380000000               -0.4682980954820093      0.7703549365523314
1410000000               -0.3968262524870442      0.8079207097547361
1440000000               -0.322391548780045       0.8388645487683702
1470000000               -0.2456074326608576      0.8629619230241702
1500000000               -0.16710308399927776     0.8800452449926836
1530000000               -0.08751810296194869     0.8900047647604947
1560000000               -0.007497186275862511    0.892788965844159
1590000000               0.07231516128734637      0.88840447099962
1620000000               0.1512798358957438       0.8769154715197474
1650000000               0.22876822228461968      0.8584426972015596
1680000000               0.3041671209002642       0.8331619476919067
1710000000               0.37688347965924224      0.8013022086143997
1740000000               0.44634889766095687      0.763143378454168
1770000000               0.5120238724479244       0.719013633951224
1800000000               0.5734017656041308       0.6692864631523019
1830000000               0.6300124647867048       0.6143773962875528
1860000000               0.6814257233318664       0.5547404654079282
1890000000               0.7272541620153078       0.49086442380957646
1920000000               0.7671559199210201       0.42326875654597135
1950000000               0.8008369444375465       0.3524995129627483
1980000000               0.8280529125437259       0.2791249918780149
2010000000               0.8486107777561203       0.20373131000910336
2040000000               0.8623699394574236       0.12691788284381175
2070000000               0.8692430327999277       0.04929284746010126
2100000000               0.8691963393508679       -0.028531544103475838
2130000000               0.8622498202426642       -0.10594353312641294
2.16E9                   0.848476775134871        -0.18233643674271638
2.19E9                   0.8280031317839569       -0.2571131778783649
2.22E9                   0.8010063726697343       -0.3296907365726234
2.25E9                   0.7677141062385822       -0.39950449819673317
2.28E9                   0.7284022919436133       -0.46601247400030577
2.31E9                   0.6833931286599658       -0.5286993724494632
2.34E9                   0.633052616274389        -0.5870805006227487
2.37E9                   0.5777877986728707       -0.6407054771754894
2.4E9                    0.5180436926238364       -0.6891617391080056
2.43E9                   0.4542999009700408       -0.732077822167962
2.46E9                   0.38706690150385126      -0.769126385823311
2.49E9                   0.3168819987637134       -0.8000269354902024
2.52E9                   0.24430493597315694      -0.8245481652775365
2.55E9                   0.16991320095825968      -0.8425098147386839
2.58E9                   0.09429712927636072      -0.8537839280801531
2.61E9                   0.018054988437918595     -0.8582954588212776
2.64E9                   -0.05821173991204507     -0.8560222878608589
2.67E9                   -0.13390274242688563     -0.8469948634114527
2.7E9                    -0.20842296710864777     -0.8312957171303792
2.73E9                   -0.2811866450927221      -0.8090589937638923
2.76E9                   -0.35162148362288914     -0.780469919344737
2.79E9                   -0.41917313430300357     -0.7457639809511942
2.82E9                   -0.4833098551653254      -0.7052255918954478
2.85E9                   -0.5435271765853101      -0.659186129350839
2.88E9                   -0.599352380050337       -0.6080213557015303
2.91E9                   -0.6503486577270003      -0.55214830653216
2.94E9                   -0.6961188843440275      -0.4920217436457255
2.97E9                   -0.7363089736977968      -0.4281302570525208
3.0E9                    -0.7706108095138657      -0.3609920795967463
3.03E9                   -0.7987647440545302      -0.2911506628872362
3.06E9                   -0.820561656204362       -0.21917005607772921
3.09E9                   -0.8358445591297241      -0.14563012695765537
3.12E9                   -0.844509747489629       -0.0711216661119131
3.15E9                   -0.8465074761605497      0.0037585831078804314
3.18E9                   -0.8418421658782024      0.07841292411984767
3.21E9                   -0.8305721356990055      0.15224769023398876
3.24E9                   -0.8128088670269306      0.2246781652308715
3.27E9                   -0.7887158091251343      0.2951333956149623
3.3E9                    -0.7585067408340503      0.36306085043530034
3.33E9                   -0.7224437079725701      0.42793088622882397
3.36E9                   -0.6808345599714342      0.4892409777574379
3.39E9                   -0.6340301134117539      0.5465196774830664
3.42E9                   -0.5824209732822664      0.5993302708732104
3.45E9                   -0.5264340459877416      0.647274097781666
3.48E9                   -0.4665287806589574      0.6899935143139305
3.51E9                   -0.403193177460137       0.7271744737788964
3.54E9                   -0.3369396031824928      0.7585487097609769
3.57E9                   -0.26830045559988375     0.7838955089033074
3.6E9                    -0.19782371844663588     0.8030430657761229
3.63E9                   -0.12606844891680424     0.8158694169209074
3.66E9                   -0.0536002383768512      0.8223029558971563
3.69E9                   0.01901331443552632      0.8223225354230785
3.72E9                   0.0912070810703824       0.8159571664563366
3.75E9                   0.1624227978526964       0.8032853268772492
3.78E9                   0.23211334621103888      0.784433894286115
3.81E9                   0.29974688996817617      0.759576718379212
3.84E9                   0.36481084227475197      0.7289328489569402
3.87E9                   0.42681563543114953      0.6927644362133294
3.9E9                    0.485298266159235        0.6513743216554846
3.93E9                   0.5398255887859715       0.6051033408065446
3.96E9                   0.5899973285553382       0.5543273636027675
3.99E9                   0.6354487898084802       0.49945410402667023
4.02E9                   0.6758532384250349       0.44091973663453693
4.05E9                   0.710923945878879        0.37918536223506477
4.08E9                   0.7404158927090961       0.3147333660362915
4.11E9                   0.7641271396399305       0.24806370782568418
4.14E9                   0.7818998821606101       0.17969017568573808
4.17E9                   0.7936212068766925       0.11013662385629214
4.2E9                    0.7992235642775228       0.03993320617956219
4.23E9                   0.7986849651957244       -0.030387388078120327
4.26E9                   0.7920289009058792       -0.10029368804531957
4.29E9                   0.7793239832489682       -0.1692591712665211
4.32E9                   0.7606833026205199       -0.23676595132613448
4.35E9                   0.7362635063994816       -0.3023084016815201
4.38E9                   0.7062636048517817       -0.3653966967073874
4.41E9                   0.6709235128860609       -0.4255602548002335
4.44E9                   0.6305223333564407       -0.4823510722058766
4.47E9                   0.5853763829404196       -0.5353469358832275
4.5E9                    0.5358369577223236       -0.5841544998046289
4.53E9                   0.4822878350421661       -0.6284122022750006
4.56E9                   0.4251425121818597       -0.6677929947315184
4.59E9                   0.3648411893849417       -0.7020068482909673
4.62E9                   0.30184751409048655      -0.7308030028173657
4.65E9                   0.2366451119380244       -0.7539719262810498
4.68E9                   0.16973393718063756      -0.7713469579616983
4.71E9                   0.10162647964269614      -0.7828056167925503
4.74E9                   0.03284386605965857      -0.7882705646246398
4.77E9                   -0.03608810860811236     -0.7877102213571926
4.8E9                    -0.10464298870795972     -0.7811390334887105
4.83E9                   -0.17229767797053094     -0.7686173989502109
4.86E9                   -0.2385364490548378      -0.7502512495561835
4.89E9                   -0.30285491982566565     -0.7261912896219074
4.92E9                   -0.364763970920571       -0.6966318873773245
4.95E9                   -0.4237935748610771      -0.6618096161503509
4.98E9                   -0.4794965025462841      -0.6220014453036213
5.01E9                   -0.5314518694443984      -0.5775225862591321
5.04E9                   -0.5792684827007538      -0.5287240052665008
5.07E9                   -0.6225879505236893      -0.4759896217079369
5.1E9                    -0.6610875178662632      -0.41973321741442265
5.13E9                   -0.6944825965250288      -0.3603950889252976
5.16E9                   -0.7225289640591592      -0.2984384796828521
5.19E9                   -0.7450246137193042      -0.23434583201256098
5.22E9                   -0.7618112457893567      -0.16861489825060322
5.25E9                   -0.7727753971136422      -0.10175474670668508
5.28E9                   -0.7778492084105535      -0.034281692566577
5.31E9                   -0.7770108274314806      0.03328482058612016
5.34E9                   -0.7702844420399209      0.10042636351629075
5.37E9                   -0.757739934061206       0.16662965902357138
5.4E9                    -0.7394921454707706      0.23139067804518174
5.43E9                   -0.7156997540910237      0.29421865065512104
5.46E9                   -0.6865637653167673      0.3546399442094683
5.49E9                   -0.6523256371128886      0.4122017611813343
5.52E9                   -0.6132650656282932      0.4664756130102907
5.55E9                   -0.5696974667825571      0.5170605335920968
5.58E9                   -0.5219711948843679      0.5635860047537075
5.61E9                   -0.4704645416646256      0.6057145768607046
5.64E9                   -0.415582557527951       0.6431441785246386
5.67E9                   -0.35775373074630273     0.675610118559466
5.7E9                    -0.29742654993243944     0.702886788357284
5.73E9                   -0.23506596435632698     0.7247890702651606
5.76E9                   -0.17114975042064398     0.7411734480127649
5.79E9                   -0.10616479543860856     0.7519388031600873
5.82E9                   -0.04060332262972484     0.7570268741022741
5.85E9                   0.0250409024637424       0.7564223578808392
5.88E9                   0.09027633228605776      0.7501526496537737
5.91E9                   0.15461731212598445      0.7382872341050939
5.94E9                   0.21758762785093602      0.7209367586833046
5.97E9                   0.27872390084684756      0.6982518250971765
6.0E9                    0.3375788189938444       0.6704215328585058
