% Model:              three_layers reality at 0.1mm.mph
% Version:            COMSOL 5.6.0.280
% Date:               Feb 26 2022, 14:27
% Table:              表格 1 - 全局计算 1
% freq (Hz)              real(emw.S11) (1)        imag(emw.S11) (1)
300000000                0.4448769080583894       -0.7546772115880783
330000000                0.36720238856144044      -0.7918963480242024
360000000                0.2866804761266886       -0.8213975282391394
390000000                0.2040343442797795       -0.8429560450183525
420000000                0.12001382450805363      -0.8564178327916733
450000000                0.03538579835101032      -0.8617020929938258
480000000                -0.04907483600192926     -0.8588027817278052
510000000                -0.13259378310490497     -0.8477890863324391
540000000                -0.2144056214703408      -0.8288049761090877
570000000                -0.2937617407086605      -0.8020678915206697
600000000                -0.36993792832859296     -0.7678666261704594
630000000                -0.4422415727425474      -0.7265584523099196
660000000                -0.5100184410658949      -0.6785655404295122
690000000                -0.5726589851935179      -0.6243707257782685
720000000                -0.629604130289345       -0.5645126773275514
750000000                -0.6803505010522616      -0.4995805283250522
780000000                -0.7244550447121846      -0.43020803109006756
810000000                -0.7615390145757989      -0.3570673018619214
840000000                -0.7912912833701753      -0.28086222449643533
870000000                -0.813470962169339       -0.20232158374588138
900000000                -0.8279093070596906      -0.12219200096625103
930000000                -0.8345109030232205      -0.041230745746173345
960000000                -0.8332541216453093      0.03980150295946758
990000000                -0.824190856389659       0.1201478727152121
1020000000               -0.8074455465064505      0.19906241873713856
1050000000               -0.7832135075416916      0.27581708038373637
1080000000               -0.7517585931519982      0.34970840576437
1110000000               -0.7134102193689943      0.4200639806148123
1140000000               -0.668559788330322       0.4862485017912481
1170000000               -0.6176565540094655      0.5476694400411034
1200000000               -0.561202977366998       0.6037822419069059
1230000000               -0.49974962274754164     0.6540950259661982
1260000000               -0.43388965075971914     0.6981727347796528
1290000000               -0.36425296642691746     0.7356407093955232
1320000000               -0.2915000830982997      0.7661876603106426
1350000000               -0.2163157649222125      0.789568014568331
1380000000               -0.13940251122244654     0.8056036255780804
1410000000               -0.06147394666553901     0.8141848385039421
1440000000               0.016751819172680094     0.8152709104491604
1470000000               0.09455880036532847      0.8088897909471676
1500000000               0.17123965014283302      0.7951372741995686
1530000000               0.24610202436264716      0.7741755402843774
1560000000               0.31847473678039917      0.7462311079521392
1590000000               0.3877136524854981       0.7115922267461477
1620000000               0.4532072700079763       0.6706057408533342
1650000000               0.5143819461785615       0.623673461357945
1680000000               0.5707067220710006       0.5712480874955642
1710000000               0.621697713093079        0.513828720854832
1740000000               0.6669220311287227       0.45195601943125924
1770000000               0.7060012117657379       0.3862070409170017
1800000000               0.7386141251327119       0.317189826583406
1830000000               0.7644993546827927       0.24553777847865016
1860000000               0.7834570343266979       0.17190388350214184
1890000000               0.7953501409591603       0.09695483784184633
1920000000               0.8001052464696248       0.02136512428729585
1950000000               0.7977127410471646       -0.05418890781599918
1980000000               0.7882265477434146       -0.12903491493457242
2010000000               0.7717633565700339       -0.20251034773169452
2040000000               0.7485014134220169       -0.27396813284038113
2070000000               0.7186789019433516       -0.3427822471974425
2100000000               0.6825919486067726       -0.40835321517718426
2130000000               0.6405922514429179       -0.47011359836449307
2.16E9                   0.5930842630551506       -0.5275335855702163
2.19E9                   0.5405217300944871       -0.5801267945426578
2.22E9                   0.4834032033477629       -0.627456301637574
2.25E9                   0.4222659526503014       -0.6691406223532357
2.28E9                   0.35767775024496307      -0.7048588125601506
2.31E9                   0.2902265572439669       -0.7343532042683067
2.34E9                   0.22050945284325005      -0.757428119060063
2.37E9                   0.14912364791058544      -0.773944055743506
2.4E9                    0.07666261973381783      -0.7838094020377333
2.43E9                   0.003718074920468695     -0.7869739384145582
2.46E9                   -0.06911522643234172     -0.7834278129332838
2.49E9                   -0.1412365459795149      -0.7732061586989566
2.52E9                   -0.21204118209215556     -0.7563961270638454
2.55E9                   -0.2809271467034158      -0.7331425234995342
2.58E9                   -0.34730417036490335     -0.7036500457557556
2.61E9                   -0.4106027142896131      -0.6681821912358458
2.64E9                   -0.47028172295057713     -0.6270579121094871
2.67E9                   -0.5258348306655097      -0.580647120915369
2.7E9                    -0.5767952373505493      -0.5293657667122637
2.73E9                   -0.6227395874332817      -0.4736708255274528
2.76E9                   -0.6632911263753105      -0.41405531435022463
2.79E9                   -0.6981223092642912      -0.351043330584015
2.82E9                   -0.7269569532104021      -0.28518508729924025
2.85E9                   -0.7495719718011253      -0.21705191763246764
2.88E9                   -0.7657987004003988      -0.14723123611192016
2.91E9                   -0.7755238074806711      -0.07632145996261686
2.94E9                   -0.7786897827664945      -0.00492690602431149
2.97E9                   -0.7752949935390566      0.0663473118094639
3.0E9                    -0.7653933035862707      0.13690035332169623
3.03E9                   -0.7490932536997305      0.2061406556295801
3.06E9                   -0.7265568076204567      0.2734908322683657
3.09E9                   -0.6979976725235492      0.3383924298212585
3.12E9                   -0.6636792081593388      0.4003105051526459
3.15E9                   -0.6239119431728959      0.4587379887450007
3.18E9                   -0.5790507204231901      0.5131998032261467
3.21E9                   -0.5294914946966995      0.5632567104995913
3.24E9                   -0.47566780570684647     0.6085088649467402
3.27E9                   -0.4180469466411971      0.6485990530153949
3.3E9                    -0.35712584443115464     0.6832155996307718
3.33E9                   -0.29342666367699277     0.7120949183713609
3.36E9                   -0.22749214386706146     0.7350236746446042
3.39E9                   -0.15988068150555465     0.7518405198507447
3.42E9                   -0.09116117773481687     0.7624373413128529
3.45E9                   -0.02190768958106748     0.7667599611291958
3.48E9                   0.04730605007235305      0.7648082116366943
3.51E9                   0.11591214488248253      0.7566353216747799
3.54E9                   0.18335394563508453      0.7423465712365124
3.57E9                   0.2490911975384048       0.7220972143773775
3.6E9                    0.3126047539162244       0.6960897277067402
3.63E9                   0.3734007039806068       0.664570504084451
3.66E9                   0.4310138082512476       0.6278261636537493
3.69E9                   0.48501020115616494      0.5861796835649956
3.72E9                   0.5349893922480312       0.5399865475126908
3.75E9                   0.5805856615721011       0.4896310895695146
3.78E9                   0.6214689940358117       0.4355231621230735
3.81E9                   0.6573457311785393       0.3780952016678857
3.84E9                   0.6879591365955972       0.3177996999133543
3.87E9                   0.7130900673592429       0.25510701105648476
3.9E9                    0.7325579072060624       0.19050334635962538
3.93E9                   0.7462218417752059       0.12448874275869881
3.96E9                   0.7539824499473735       0.057574767416167294
3.99E9                   0.7557834736860962       -0.009718249253874545
4.02E9                   0.7516135440234379       -0.07686457612866907
4.05E9                   0.7415076077712716       -0.14333705021720056
4.08E9                   0.7255478244421014       -0.2086115513164166
4.11E9                   0.7038637732015481       -0.27217180077098463
4.14E9                   0.6766319020606851       -0.3335142664732852
4.17E9                   0.6440742413969247       -0.3921529649815929
4.2E9                    0.6064564727026327       -0.4476239951930926
4.23E9                   0.5640854808827248       -0.49948970031170437
4.26E9                   0.5173065226286714       -0.5473424192268918
4.29E9                   0.4665001197231082       -0.5908078399575374
4.32E9                   0.4120787460286872       -0.6295479963354674
4.35E9                   0.3544833344318331       -0.6632639518297485
4.38E9                   0.29417959833769824      -0.6916981958487228
4.41E9                   0.23165414891628996      -0.7146367484558611
4.44E9                   0.16741039517766546      -0.7319109405665661
4.47E9                   0.10196423391292093      -0.7433988172402506
4.5E9                    0.03583956324635214      -0.7490261057841144
4.53E9                   -0.030436320070784895    -0.7487666980697676
4.56E9                   -0.09633735870489223     -0.7426426155563846
4.59E9                   -0.16134331596640658     -0.7307234528529583
4.62E9                   -0.22494420982389576     -0.713125326976159
4.65E9                   -0.2866445259112797      -0.6900093884251062
4.68E9                   -0.34596716628762847     -0.661579968441004
4.71E9                   -0.40245712790746135     -0.628082436068135
4.74E9                   -0.4556849361424351      -0.5898008156987565
4.77E9                   -0.5052498697387247      -0.5470551768575614
4.8E9                    -0.5507829962474557      -0.5001987688114774
4.83E9                   -0.5919499952363136      -0.4496148524218505
4.86E9                   -0.62845369707133        -0.39571319330655846
4.89E9                   -0.6600362291801242      -0.3389262235828612
4.92E9                   -0.6864806564343499      -0.2797049405181232
4.95E9                   -0.7076120328766957      -0.21851466904050723
4.98E9                   -0.7232978420969508      -0.15583085200163393
5.01E9                   -0.7334478781667907      -0.09213503479713792
5.04E9                   -0.7380136894765417      -0.027911175225511866
5.07E9                   -0.7369877546148782      0.03635765976793703
5.1E9                    -0.730402566051943       0.10019223707483578
5.13E9                   -0.7183297553023329      0.16311985048383315
5.16E9                   -0.7008793083790194      0.2246769246050775
5.19E9                   -0.678198817362546       0.2844116841203406
5.22E9                   -0.6504726315613587      0.3418869748811236
5.25E9                   -0.617920747480007       0.39668321706951376
5.28E9                   -0.5807973252645496      0.44840137207392994
5.31E9                   -0.539388819205611       0.4966657608700671
5.34E9                   -0.4940118120757429      0.5411266033821674
5.37E9                   -0.44501069721103986     0.5814622366482544
5.4E9                    -0.39275533560474934     0.6173810676370173
5.43E9                   -0.3376387425368621      0.648623377281781
5.46E9                   -0.2800747684309694      0.6749630932351056
5.49E9                   -0.22049567066027126     0.6962095978855098
5.52E9                   -0.15934944827822975     0.7122095619386063
5.55E9                   -0.09709683049214918     0.722848720415931
5.58E9                   -0.03420786001165386     0.7280534557586005
5.61E9                   0.028841920735130522     0.7277920294959092
5.64E9                   0.09157560118285205      0.7220753115018494
5.67E9                   0.15351920782946815      0.7109568950008665
5.7E9                    0.21420599482857466      0.6945325552672061
5.73E9                   0.2731805267990254       0.6729391006781689
5.76E9                   0.3300024086585269       0.6463527514535672
5.79E9                   0.3842496118153241       0.6149872279538962
5.82E9                   0.4355214525313262       0.5790917097667225
5.85E9                   0.48344134779456494      0.5389487440060519
5.88E9                   0.527659473503217        0.4948720767156576
5.91E9                   0.5678553850997599       0.44720430667587535
5.94E9                   0.6037405702597255       0.3963142467345072
5.97E9                   0.6350608304108736       0.3425939191380167
6.0E9                    0.6615983564486196       0.2864551801922807
