% Model:              three_layers reality at 0.1mm.mph
% Version:            COMSOL 5.6.0.280
% Date:               Feb 26 2022, 14:29
% Table:              表格 1 - 全局计算 1
% freq (Hz)              real(emw.S11) (1)        imag(emw.S11) (1)
300000000                0.4447906066172957       -0.7546781700085812
330000000                0.3671112421901224       -0.7918901731070387
360000000                0.28658519472906047      -0.8213833541727562
390000000                0.20393574601102282      -0.842933075857808
420000000                0.11991283197962233      -0.8563853565237913
450000000                0.03528343200535229      -0.8616594953657342
480000000                -0.04917746695253378     -0.8587495593750426
510000000                -0.13269549188105412     -0.8477248588776979
540000000                -0.21450515687839922     -0.8287294969472321
570000000                -0.29385780195518746     -0.8019810570166005
600000000                -0.3700291809768221      -0.7677684831106775
630000000                -0.4423266662001839      -0.7264492033092133
660000000                -0.5100960263493796      -0.6784455474273557
690000000                -0.5727277336394546      -0.6242405112150198
720000000                -0.6296627523804939      -0.5643729231257354
750000000                -0.6803977651739278      -0.4994320726414676
780000000                -0.7244897956196014      -0.43005186281914026
810000000                -0.7615601912643312      -0.3569045529443803
840000000                -0.7912979361120362      -0.2806941600587766
870000000                -0.8134622683796536      -0.20214959031908927
900000000                -0.8278845858321349      -0.12201757283504883
930000000                -0.8344696281210343      -0.041055469514652866
960000000                -0.8331959326902348      0.039975965168271343
990000000                -0.8241155681402246      0.12031980137522223
1020000000               -0.8073531560711471      0.1992300561812716
1050000000               -0.7831041993962234      0.27597865073305716
1080000000               -0.7516327419135922      0.3498621354339999
1110000000               -0.7132683902450012      0.4202081191419524
1140000000               -0.6684027352553907      0.4863813426151504
1170000000               -0.6174852154694741      0.5477893410425434
1200000000               -0.5610184699902346      0.6038876453859651
1230000000               -0.49955323265841645     0.654184477919078
1260000000               -0.4336828229464093      0.6982449030484746
1290000000               -0.36403729210643665     0.7356944006485293
1320000000               -0.29127728535399794     0.7662218355198074
1350000000               -0.21608768276061882     0.78958180284533
1380000000               -0.1391710822558485      0.8055963362050895
1410000000               -0.06124118866881539     0.8141559710113291
1440000000               0.01698382761840307      0.8152201626420293
1470000000               0.09478793978454761      0.808817064797144
1500000000               0.17146378045230437      0.7950426795800803
1530000000               0.2463190052465965       0.7740593965446008
1560000000               0.3186824477570374       0.7460939433769886
1590000000               0.38791001243206336      0.7114347760165816
1620000000               0.4533902558821799       0.6704289406463161
1650000000               0.5145496105571873       0.6234784443392631
1680000000               0.5708572092692158       0.5710361750243025
1710000000               0.6218292736437434       0.5136014148134522
1740000000               0.6670330343997286       0.4517149937555777
1770000000               0.7060901566447761       0.38595413356783403
1800000000               0.7386796489008255       0.31692703286666907
1830000000               0.7645402404036894       0.24526724695408816
1860000000               0.7834722176505591       0.1716279158890824
1890000000               0.7953387178816386       0.09667589472375458
1920000000               0.8000664848044462       0.02108583848275743
1950000000               0.7976461001048215       -0.05446570837456313
1980000000               0.788131713282019        -0.12930617393859498
2010000000               0.7716403015760996       -0.20277273819757757
2040000000               0.7483504995063698       -0.2742180123672982
2070000000               0.7185010399462861       -0.3430156271880511
2100000000               0.682388837153129        -0.40856577788613707
2130000000               0.6403667014637655       -0.4703008218664117
2.16E9                   0.59284058178888         -0.527691068672951
2.19E9                   0.5402660623557024       -0.5802508938427693
2.22E9                   0.48314360330978534      -0.6275451565395582
2.25E9                   0.42201182392820924      -0.6691954791448674
2.28E9                   0.35743828421713764      -0.7048852149272133
2.31E9                   0.2900081480143323       -0.7343612093481251
2.34E9                   0.2203128662522552       -0.7574306416427389
2.37E9                   0.1489425221382076       -0.7739532379893941
2.4E9                    0.0764847051478041       -0.7838323734835319
2.43E9                   0.00352906982101473      -0.7870102055013343
2.46E9                   -0.06932715028121184     -0.7834696611232922
2.49E9                   -0.14147772136884526     -0.7732415093785163
2.52E9                   -0.21231182181271457     -0.7564120635622964
2.55E9                   -0.28122254315613937     -0.7331279611118843
2.58E9                   -0.34761659229655123     -0.7035970238835145
2.61E9                   -0.4109231423243424      -0.6680860432615181
2.64E9                   -0.4706010655589733      -0.6269168178200033
2.67E9                   -0.5261446150971469      -0.5804614567220504
2.7E9                    -0.5770879142267175      -0.5291374893498334
2.73E9                   -0.6230086013186729      -0.47340298219180466
2.76E9                   -0.6635308677610258      -0.4137516919160167
2.79E9                   -0.6983280208645825      -0.3507082225727389
2.82E9                   -0.7271246308178724      -0.28482314896145405
2.85E9                   -0.7496982792197032      -0.21666808218096262
2.88E9                   -0.7658809063223642      -0.1468306710458518
2.91E9                   -0.7755597463685228      -0.07590954821100782
2.94E9                   -0.7786778393458947      -0.0045092410565593
2.97E9                   -0.7752341098026054      0.06676492473781419
3.0E9                    -0.7652830072499125      0.13731189604334476
3.03E9                   -0.7489337072681709      0.20653990144346174
3.06E9                   -0.7263488773164957      0.27387136142900853
3.09E9                   -0.6977430160845565      0.33874766217138896
3.12E9                   -0.6633803797520701      0.40063375696231623
3.15E9                   -0.6235725123172196      0.45902256187722634
3.18E9                   -0.5786753995645524      0.5134391160664658
3.21E9                   -0.5290862668014455      0.5634444809646812
3.24E9                   -0.4752400385377293      0.6086393563570396
3.27E9                   -0.417605474138668       0.6486673925005464
3.3E9                    -0.3566809877642143      0.6832181752613224
3.33E9                   -0.29299015582820687     0.7120298536009089
3.36E9                   -0.22707691347717196     0.7348913655254552
3.39E9                   -0.15950044731295565     0.7516442003917135
3.42E9                   -0.09082980844410074     0.7621836156252514
3.45E9                   -0.02163830117844903     0.7664592101848445
3.48E9                   0.04750225225467517      0.7644747543785284
3.51E9                   0.1160272166064166       0.7562871954673128
3.54E9                   0.18338461372446935      0.7420048086865894
3.57E9                   0.24904012516193533      0.7217845437779017
3.6E9                    0.31248140728780244      0.6958287158987374
3.63E9                   0.37322156312470267      0.6643812822027334
3.66E9                   0.43080172460727245      0.6277240014132086
3.69E9                   0.484792828649085        0.586172770571454
3.72E9                   0.5347967847912791       0.5400743676167827
3.75E9                   0.5804473015035516       0.4898037189498369
3.78E9                   0.6214106501856353       0.4357616880118171
3.81E9                   0.6573866070573882       0.37837327162617806
3.84E9                   0.6881097393209843       0.31808601110418455
3.87E9                   0.7133511081883448       0.25536838058563616
3.9E9                    0.7329203596039087       0.19070790816546013
3.93E9                   0.7466680763160665       0.12460881782322245
3.96E9                   0.7544881883705309       0.05758904975153017
3.99E9                   0.7563201992045734       -0.009823388116460571
4.02E9                   0.7521509897063293       -0.07709468378053333
4.05E9                   0.7420160089945299       -0.14368996209610194
4.08E9                   0.7259997336211491       -0.20907831260688342
4.11E9                   0.7042353575851398       -0.2727378987147387
4.14E9                   0.676903747619933        -0.33416095985129823
4.17E9                   0.6442317512147068       -0.39285855849931495
4.2E9                    0.6064899740600812       -0.4483649757883752
4.23E9                   0.5639901486779202       -0.5002417126679404
4.26E9                   0.5170821998261529       -0.5480810988883554
4.29E9                   0.4661510810372891       -0.5915095416465558
4.32E9                   0.4116134194699482       -0.6301904553225826
4.35E9                   0.3539139735760166       -0.663826903786356
4.38E9                   0.2935218883346384       -0.692163963197419
4.41E9                   0.23092673003124775      -0.7149907849891558
4.44E9                   0.16663429523179085      -0.7321423149550613
4.47E9                   0.10116221143882634      -0.7435006110455706
4.5E9                    0.03503537344153767      -0.7489957019680773
4.53E9                   -0.031218716105966673    -0.7486059403676729
4.56E9                   -0.09707461548021926     -0.742357826175191
4.59E9                   -0.1620135280692665      -0.7303253044412709
4.62E9                   -0.2255277140909553      -0.7126285728689457
4.65E9                   -0.2871246626883167      -0.6894324600232996
4.68E9                   -0.3463309894704943      -0.6609444471900867
4.71E9                   -0.4026960585156794      -0.6274123985612846
4.74E9                   -0.45579534956203754     -0.589122036619
4.77E9                   -0.5052335886555156      -0.5463941634552801
4.8E9                    -0.5506476314587738      -0.4995816029472204
4.83E9                   -0.5917090447810024      -0.4490658403555883
4.86E9                   -0.628126295267539       -0.39525337071134603
4.89E9                   -0.6596464460139988      -0.33857182488714865
4.92E9                   -0.6860562922688235      -0.27946600046302533
4.95E9                   -0.7071829309418546      -0.21839395934063355
4.98E9                   -0.722893836823771       -0.15582334947343515
5.01E9                   -0.7330965870870604      -0.09222806081710833
5.04E9                   -0.7377384124369166      -0.028085246093339983
5.07E9                   -0.7368057440790983      0.03612735414501699
5.1E9                    -0.7303238688133371      0.099933918703993
5.13E9                   -0.7183567134017057      0.16286305779649463
5.16E9                   -0.7010066808337698      0.22445048311294677
5.19E9                   -0.6784143891199421      0.2842419170662264
5.22E9                   -0.6507581458612958      0.34179622198264364
5.25E9                   -0.6182530369185578      0.39668864046395186
5.28E9                   -0.5811495949653741      0.4485139968039838
5.31E9                   -0.5397321023398275      0.496889731714472
5.34E9                   -0.4943166312553068      0.5414587121397331
5.37E9                   -0.4452489146991885      0.581891835177668
5.4E9                    -0.39290208660025555     0.6178904909055641
5.43E9                   -0.33767426391847455     0.6491889455136235
5.46E9                   -0.27998589912676214     0.6755566629094711
5.49E9                   -0.22027682469589635     0.6968005248637917
5.52E9                   -0.15900293792436743     0.7127668612075244
5.55E9                   -0.09663252006865425     0.7233431758417622
5.58E9                   -0.033642233447103646    0.7284594529419187
5.61E9                   0.02948711544285079      0.7280889463846194
5.64E9                   0.0922749245229939       0.7222483896525861
5.67E9                   0.15424511423538886      0.710997610594293
5.7E9                    0.2149302743700023       0.6944385913692145
5.73E9                   0.2738755287740425       0.6727140677866187
5.76E9                   0.33064206529652473      0.6460057952295784
5.79E9                   0.3848103482276603       0.6145326020676125
5.82E9                   0.43598308267799324      0.5785483029835974
5.85E9                   0.48378800877619654      0.5383394752398823
5.88E9                   0.5278805649956072       0.4942230458965887
5.91E9                   0.5679463976449285       0.44654362418571003
5.94E9                   0.6037036408095777       0.3956705427100034
5.97E9                   0.6349048703454451       0.341994624105816
6.0E9                    0.6613386492241435       0.2859247411948484
