% Model:              three_layers reality at 0.1mm.mph
% Version:            COMSOL 5.6.0.280
% Date:               Feb 23 2022, 16:47
% Table:              表格 1 - 全局计算 1
% freq (Hz)              real(emw.S11) (1)        imag(emw.S11) (1)
300000000                0.4501078311582827       -0.7360853774239627
330000000                0.37535233204221063      -0.7736034910447636
360000000                0.29770218256889774      -0.803779492930204
390000000                0.21784145948192377      -0.8263817539917927
420000000                0.13648016963407966      -0.8412457057888288
450000000                0.05434543111774524      -0.8482759449096027
480000000                -0.02782679739648586     -0.847447464891936
510000000                -0.10929960938664768     -0.8388060717324509
540000000                -0.18934274028792455     -0.8224680244087132
570000000                -0.2672398736831689      -0.7986189350244477
600000000                -0.34229565321564953     -0.7675119617007207
630000000                -0.41384237272881297     -0.7294653282476644
660000000                -0.4812463067061784      -0.6848592075053099
690000000                -0.5439136397680004      -0.634132008619741
720000000                -0.6012959520775549      -0.5777761125780575
750000000                -0.6528952190276598      -0.5163331041675476
780000000                -0.6982682860598504      -0.45038855234329633
810000000                -0.7370307829451215      -0.3805663948380613
840000000                -0.7688604470953687      -0.30752298545399015
870000000                -0.7934998303428765      -0.23194086521988844
900000000                -0.8107583692559133      -0.15452232106164054
930000000                -0.8205138055683131      -0.075982796176137
960000000                -0.822712949145922       0.00295578216047858
990000000                -0.8173717825313871      0.08157169190811722
1020000000               -0.8045749124446355      0.159150057948082
1050000000               -0.7844743798504956      0.23498938225969976
1080000000               -0.7572878464244491      0.30840790084068187
1110000000               -0.7232961810846437      0.3787497080215738
1140000000               -0.6828404758014142      0.44539059200024644
1170000000               -0.6363185252013228      0.5077435287184451
1200000000               -0.5841808091051087      0.5652637856424578
1230000000               -0.5269260215934238      0.6174535911724486
1260000000               -0.4650961937635518      0.6638663306169114
1290000000               -0.3992714608091566      0.7041102344650282
1320000000               -0.3300645264976364      0.7378515304504726
1350000000               -0.258114880315346       0.7648170362872717
1380000000               -0.18408282398790377     0.7847961757582904
1410000000               -0.10864336498323564     0.7976424065747187
1440000000               -0.03248003488694025     0.8032740542015283
1470000000               0.043721309764232254     0.8016745514992465
1500000000               0.11927864718231831      0.7928920895983186
1530000000               0.19351985543136474      0.7770386908411212
1560000000               0.2657886289124271       0.7542887197466868
1590000000               0.33545019526503883      0.7248768528779407
1620000000               0.40189678386790445      0.6890955331035358
1650000000               0.46455280066744714      0.6472919379912357
1680000000               0.5228796672923613       0.599864496056839
1710000000               0.5763802865024633       0.5472589880576018
1740000000               0.6246031000293208       0.48996427371048334
1770000000               0.6671457093598537       0.42850768697141295
1800000000               0.7036580348239483       0.36345014525613406
1830000000               0.7338449934077449       0.29538101976747233
1860000000               0.7574686810692175       0.22491281541313668
1890000000               0.7743500511626306       0.15267570929135074
1920000000               0.784370086749254        0.07931199652268378
1950000000               0.787470471269338        0.0054704905878133064
1980000000               0.7836537690799279       -0.0681990776943908
2010000000               0.7729831346108196       -0.14105162457244844
2040000000               0.7555815753263343       -0.21245221242266996
2070000000               0.731630797617153        -0.28178147021456085
2100000000               0.7013696620414998       -0.348440943830281
2130000000               0.6650922579524199       -0.41185841352892427
2.16E9                   0.6231455660462886       -0.4714932462850754
2.19E9                   0.5759265967623284       -0.5268418661465472
2.22E9                   0.523878765710181        -0.5774433882435808
2.25E9                   0.4674871192806377       -0.6228853087490974
2.28E9                   0.4072719540758065       -0.6628088099286296
2.31E9                   0.343780585896919        -0.6969127503507485
2.34E9                   0.27757773929806184      -0.7249550286899558
2.37E9                   0.2092361773428044       -0.746750289316905
2.4E9                    0.13933004448621578      -0.7621643340408021
2.43E9                   0.06843280073829554      -0.7711076448200462
2.46E9                   -0.002880723115531048    -0.773531458658328
2.49E9                   -0.07403115335572678     -0.7694285077905013
2.52E9                   -0.14443380572802342     -0.7588376523227209
2.55E9                   -0.21350200186348803     -0.7418495768408764
2.58E9                   -0.28065375943153453     -0.7186108412206986
2.61E9                   -0.34531996235592255     -0.6893250898218366
2.64E9                   -0.40695233361957767     -0.6542516480363155
2.67E9                   -0.46503033947698286     -0.6137023593470036
2.7E9                    -0.5190668413088342      -0.5680374852270259
2.73E9                   -0.5686126570676014      -0.5176612055719365
2.76E9                   -0.613260277109342       -0.4630169860399709
2.79E9                   -0.6526469380648697      -0.40458290696088905
2.82E9                   -0.6864571869354505      -0.34286696663083976
2.85E9                   -0.7144250063688165      -0.278402345337806
2.88E9                   -0.7363355311813611      -0.2117426167042969
2.91E9                   -0.7520263627331564      -0.1434569031549879
2.94E9                   -0.7613884766607574      -0.07412498394070256
2.97E9                   -0.7643667157579668      -0.004332374460281041
3.0E9                    -0.7609598604913266      0.06533459650030814
3.03E9                   -0.7512202727519637      0.13429367950473214
3.06E9                   -0.7352531128786783      0.20197153157596703
3.09E9                   -0.713215134996378       0.26780844043931323
3.12E9                   -0.685313070931045       0.3312629085979175
3.15E9                   -0.6518016177520373      0.3918160616159235
3.18E9                   -0.612981048052771       0.44897584765810566
3.21E9                   -0.5691944646747298      0.5022809992391303
3.24E9                   -0.5208247225718509      0.5513047320313506
3.27E9                   -0.46829103959568874     0.5956581589683368
3.3E9                    -0.41204531577557724     0.6349933995100638
3.33E9                   -0.3525681778399549      0.6690063632522245
3.36E9                   -0.29036476389110427     0.697439183426011
3.39E9                   -0.22596026346373918     0.7200822698573457
3.42E9                   -0.1598952326752645      0.7367759432563705
3.45E9                   -0.09272071342017939     0.7474116054792347
3.48E9                   -0.024993200472207457    0.7519323958413673
3.51E9                   0.042730480231179695     0.7503332849343325
3.54E9                   0.10989829743769448      0.7426605674125206
3.57E9                   0.1759680405981568       0.7290107354670726
3.6E9                    0.24041213064441927      0.7095287442557084
3.63E9                   0.3027221008213268       0.6844057151899888
3.66E9                   0.36241264727845357      0.6538761561471872
3.69E9                   0.41902517485802593      0.6182148030786214
3.72E9                   0.4721307942535091       0.5777332022380669
3.75E9                   0.5213327581368331       0.5327761579473158
3.78E9                   0.5662683544332332       0.4837181715374727
3.81E9                   0.6066103091419844       0.4309599936105588
3.84E9                   0.6420677921015273       0.3749253984568706
3.87E9                   0.6723871632467202       0.3160582557146646
3.9E9                    0.6973526295971582       0.2548199131923305
3.93E9                   0.7167869838323111       0.19168682223396022
3.96E9                   0.7305525496946693       0.12714825470660393
3.99E9                   0.7385523707643625       0.06170390841921637
4.02E9                   0.7407315705480422       -0.004138801200785435
4.05E9                   0.7370787174720977       -0.06986790742247814
4.08E9                   0.7276269774541654       -0.13497056352721035
4.11E9                   0.712454841871919        -0.19893716031319642
4.14E9                   0.6916862725778913       -0.2612657467919212
4.17E9                   0.6654901871055294       -0.3214665676284037
4.2E9                    0.6340792911823808       -0.3790665318448341
4.23E9                   0.5977083310893659       -0.4336134643426308
4.26E9                   0.5566718732366474       -0.48468004791899083
4.29E9                   0.5113017205371987       -0.5318674208351705
4.32E9                   0.46196405204973684      -0.5748084377437896
4.35E9                   0.40905633692535465      -0.6131706217349546
4.38E9                   0.3530040402039859       -0.6466588322973381
4.41E9                   0.29425711711590774      -0.6750176552589457
4.44E9                   0.23328628843710444      -0.6980334968459311
4.47E9                   0.17057909989858527      -0.7155363443859084
4.5E9                    0.10663578784112637      -0.7274011464461869
4.53E9                   0.04196499469454747      -0.7335487668359416
4.56E9                   -0.022920603462650214    -0.7339464784930325
4.59E9                   -0.08750868276952062     -0.7286079824583882
4.62E9                   -0.15129159299313655     -0.7175929608585152
4.65E9                   -0.21377054404494367     -0.7010061971312691
4.68E9                   -0.27445960606421915     -0.6789963161044041
4.71E9                   -0.3328894988166979      -0.6517542043695186
4.74E9                   -0.38861117433351033     -0.6195111630959372
4.77E9                   -0.44119921562579556     -0.582536821590612
4.8E9                    -0.4902550745967498      -0.5411368085960101
4.83E9                   -0.5354101522255753      -0.49565015241470384
4.86E9                   -0.5763286901977177      -0.4464463725869566
4.89E9                   -0.6127104088113515      -0.39392224015286986
4.92E9                   -0.6442928041518758      -0.3384982167778121
4.95E9                   -0.6708530164538387      -0.28061462481697275
4.98E9                   -0.6922092019115207      -0.2207276392130052
5.01E9                   -0.7082213779033267      -0.15930521792248864
5.04E9                   -0.7187917589049322      -0.0968230941412464
5.07E9                   -0.723864648184168       -0.03376093721933817
5.1E9                    -0.7234259873442981      0.02940124979475205
5.13E9                   -0.7175026798066914      0.09218648375720268
5.16E9                   -0.7061617860073588      0.15412395231533677
5.19E9                   -0.6895096374436062      0.21475204871793632
5.22E9                   -0.6676908486312231      0.27362138000504327
5.25E9                   -0.6408871485245777      0.3302977963096723
5.28E9                   -0.6093159349180249      0.38436541773071076
5.31E9                   -0.5732284891483403      0.4354295676153373
5.34E9                   -0.5329078595336222      0.4831194917657623
5.37E9                   -0.48866649536889295     0.5270907673442307
5.4E9                    -0.44084375363693334     0.5670273702802859
5.43E9                   -0.38980339136340203     0.6026434440359015
5.46E9                   -0.3359311062229342      0.6336848635843916
5.49E9                   -0.27963212073222626     0.6599306996477866
5.52E9                   -0.22132874675228298     0.681194661290148
5.55E9                   -0.16145783337624914     0.697326543763235
5.58E9                   -0.10046799781851093     0.7082136497184807
5.61E9                   -0.03881656299335692     0.7137820992086861
5.64E9                   0.023033828587459837     0.7139979070193241
5.67E9                   0.0846188942706542       0.7088676927589209
5.7E9                    0.14547658889737694      0.698438907114499
5.73E9                   0.20515103364038156      0.6827995099362051
5.76E9                   0.2631963315439771       0.6620771136939992
5.79E9                   0.3191801366902562       0.6364376843341094
5.82E9                   0.3726869176696832       0.6060839369498028
5.85E9                   0.42332094095943484      0.5712535536273494
5.88E9                   0.47070905602221685      0.5322172918383684
5.91E9                   0.514503368229115        0.4892769764876914
5.94E9                   0.5543838447131407       0.44276331414905823
5.97E9                   0.590060839113241        0.393033453363804
6.0E9                    0.6212774716799331       0.3404682357078379
