% Model:              three_layers reality at 0.1mm.mph
% Version:            COMSOL 5.6.0.280
% Date:               Feb 23 2022, 18:53
% Table:              表格 1 - 全局计算 1
% freq (Hz)              real(emw.S11) (1)        imag(emw.S11) (1)
300000000                0.5965755010717801       -0.7277209927216459
330000000                0.530963487356485        -0.7760773062251203
360000000                0.4615468357329759       -0.8186023671340582
390000000                0.38883002767598485      -0.8549931466676356
420000000                0.31334428183006513      -0.884991026898484
450000000                0.23564294050775986      -0.9083839720245545
480000000                0.15629690826305415      -0.9250082959456338
510000000                0.07589009309504516      -0.9347500306109323
540000000                -0.004985164407993992    -0.9375458953340419
570000000                -0.08573267070303565     -0.9333838665434375
600000000                -0.16575695276906455     -0.9223033477252692
630000000                -0.2444678038437278      -0.9043949405169652
660000000                -0.32128477522712845     -0.8797998198405935
690000000                -0.3956415854687303      -0.848708718255546
720000000                -0.46699041644363953     -0.811360527515779
750000000                -0.5348060664603359      -0.7680405275272149
780000000                -0.5985899287782159      -0.7190782563936087
810000000                -0.6578737662288973      -0.6648450373299836
840000000                -0.7122232525263135      -0.6057511814894627
870000000                -0.7612412526323489      -0.5422428883549196
900000000                -0.8045708165438221      -0.4747988676721302
930000000                -0.8418978626952578      -0.40392670949282894
960000000                -0.8729535297069368      -0.33015903083811016
990000000                -0.8975161775469719      -0.25404943000239616
1020000000               -0.9154130225583581      -0.17616828019955988
1050000000               -0.9265213932159391      -0.09709839681584069
1080000000               -0.9307695971303467      -0.017430612553721008
1110000000               -0.9281373927774349      0.06224070368740379
1140000000               -0.9186560629428003      0.14132214853061326
1170000000               -0.9024080901555611      0.21922577006226673
1200000000               -0.87952643780541        0.295373502518597
1230000000               -0.8501934438777357      0.369201514400788
1260000000               -0.8146393375647532      0.44016443562285
1290000000               -0.7731403919953327      0.5077394308035956
1320000000               -0.7260167294381372      0.5714300869044502
1350000000               -0.6736297979091274      0.6307700856879863
1380000000               -0.6163795408751608      0.6853266330308806
1410000000               -0.5547012839422364      0.7347036197204889
1440000000               -0.4890623645482417      0.7785444906547173
1470000000               -0.4199585324282423      0.8165348020637309
1500000000               -0.3479101503292843      0.848404448967631
1530000000               -0.27345822545748133     0.8739295481163215
1560000000               -0.1971603032971686      0.8929339644140827
1590000000               -0.11958625600163515     0.9052904718451246
1620000000               -0.04131399817141795     0.9109215428055406
1650000000               0.037074837485332246     0.9097997627833883
1680000000               0.11499923169782421      0.9019478700755243
1710000000               0.1918830851807643       0.8874384231489556
1740000000               0.26715946876179547      0.8663931009144266
1770000000               0.34027478584105036      0.8389816438700207
1800000000               0.41069281795397466      0.805420446448273
1830000000               0.47789862442992403      0.7659708134249431
1860000000               0.5414022693010935       0.7209368953252306
1890000000               0.6007423498064792       0.6706633198726447
1920000000               0.6554893024761903       0.6155325385431403
1950000000               0.7052484648843755       0.5559619088414016
1980000000               0.7496628728937481       0.4924005345692855
2010000000               0.7884157751965          0.4253258878814852
2040000000               0.8212328493572756       0.3552402378195517
2070000000               0.8478841055876825       0.2826669111279752
2100000000               0.8681854667910738       0.20814641180333965
2130000000               0.8820000157070983       0.13223242593784576
2.16E9                   0.8892389018706383       0.055487738403336775
2.19E9                   0.889861902527057        -0.021519912620801298
2.22E9                   0.8838776320005647       -0.09822201773325767
2.25E9                   0.8713433930193859       -0.17405348899317366
2.28E9                   0.8523646617788856       -0.2484568335778209
2.31E9                   0.8270941986866313       -0.3208862715233114
2.34E9                   0.7957307839122184       -0.39081174945795394
2.37E9                   0.7585175955577708       -0.4577227952247753
2.4E9                    0.7157402735633558       -0.5211321681002881
2.43E9                   0.6677247266052838       -0.5805792896803049
2.46E9                   0.6148347224514983       -0.6356334760918552
2.49E9                   0.5574692620756361       -0.6858970001112367
2.52E9                   0.4960597069444328       -0.7310079837465553
2.55E9                   0.4310666343935619       -0.7706430816903612
2.58E9                   0.36297642721854084      -0.8045198976809966
2.61E9                   0.2922976331475251       -0.8323990848508971
2.64E9                   0.2195571415590692       -0.8540861020497849
2.67E9                   0.14529622244605883      -0.8694326148252008
2.7E9                    0.07006646536069674      -0.878337537909329
2.73E9                   -0.005574349371225473    -0.8807477182333865
2.76E9                   -0.08106641758860925     -0.8766582576236766
2.79E9                   -0.15585208712120924     -0.8661124746093747
2.82E9                   -0.22938001298600616     -0.8492015058887331
2.85E9                   -0.3011092615628004      -0.8260635499358095
2.88E9                   -0.3705133332974012      -0.7968827576728564
2.91E9                   -0.4370840734342273      -0.7618877778224049
2.94E9                   -0.5003354406514374      -0.7213499674236433
2.97E9                   -0.559807104392617       -0.6755812807896627
3.0E9                    -0.6150678428832221      -0.6249318528928756
3.03E9                   -0.6657187151278144      -0.5697872958982315
3.06E9                   -0.7113959821474061      -0.5105657299222249
3.09E9                   -0.7517737546180446      -0.447714571440361
3.12E9                   -0.7865663463155572      -0.38170710490629794
3.15E9                   -0.8155303153832447      -0.31303886478179943
3.18E9                   -0.8384661778894394      -0.2422238570149049
3.21E9                   -0.8552197811222746      -0.16979064996534354
3.24E9                   -0.8656833267908024      -0.09627836605464096
3.27E9                   -0.8697960373631064      -0.022232605766668426
3.3E9                    -0.8675444616131612      0.051798663741658625
3.33E9                   -0.858962418413765       0.12526922320948708
3.36E9                   -0.8441305806643687      0.1976386869252921
3.39E9                   -0.8231757040597456      0.26837652768350007
3.42E9                   -0.7962695081328942      0.33696600997772097
3.45E9                   -0.7636272198248365      0.40290800076696265
3.48E9                   -0.7255057924080248      0.4657246286277696
3.51E9                   -0.6822018154730308      0.5249627627374167
3.54E9                   -0.6340491342667793      0.5801972850315485
3.57E9                   -0.5814161994439753      0.6310341304804792
3.6E9                    -0.5247031707022787      0.6771130728666562
3.63E9                   -0.4643388000005838      0.718110236056896
3.66E9                   -0.40077712185003406     0.7537403137691524
3.69E9                   -0.3344939792497874      0.7837584841358874
3.72E9                   -0.2659834146738085      0.8079620084513857
3.75E9                   -0.1957539557625516      0.8261915066737693
3.78E9                   -0.12432482531630562     0.8383319053100572
3.81E9                   -0.0522221048442054      0.8443130563095963
3.84E9                   0.02002512015801319      0.8441100285656611
3.87E9                   0.09188860635579915      0.8377430761284228
3.9E9                    0.16284476553741314      0.8252772891202778
3.93E9                   0.23237842143030216      0.8068219342085107
3.96E9                   0.29998648917596055      0.7825294915087879
3.99E9                   0.36518155615700576      0.7525943945874354
4.02E9                   0.4274953425844643       0.7172514803259463
4.05E9                   0.48648201871088104      0.6767741566471352
4.08E9                   0.541721354594537        0.631472298457204
4.11E9                   0.5928216780736316       0.5816898854395587
4.14E9                   0.6394226175035173       0.5278023989878631
4.17E9                   0.6811976080754992       0.4702139987484666
4.2E9                    0.7178561433323847       0.4093545018462205
4.23E9                   0.7491457568964336       0.34567618931959443
4.26E9                   0.7748537225915989       0.2796504648695173
4.29E9                   0.7948084638385645       0.2117643910321892
4.32E9                   0.8088806654468592       0.14251712725835036
4.35E9                   0.8169840823727622       0.07241629420064474
4.38E9                   0.8190760413371007       0.0019742883194887708
4.41E9                   0.8151576323733544       -0.06829542883249769
4.44E9                   0.8052735887704383       -0.13788204179611832
4.47E9                   0.7895118556274419       -0.20628106728604798
4.5E9                    0.7680028493205043       -0.27299798935436764
4.53E9                   0.7409184125440285       -0.3375518174459444
4.56E9                   0.7084704720433642       -0.39947854157433593
4.59E9                   0.6709094087697065       -0.4583344591969585
4.62E9                   0.6285221525618877       -0.5136993496267215
4.65E9                   0.5816300157568307       -0.5651794730896066
4.68E9                   0.5305862820122161       -0.6124103732921458
4.71E9                   0.4757735679964258       -0.6550594642609169
4.74E9                   0.4176009766309685       -0.6928283838504216
4.77E9                   0.35650106131093406      -0.725455097714027
4.8E9                    0.29292662131516706      -0.7527157385210586
4.83E9                   0.22734734998892936      -0.774426165916182
4.86E9                   0.16024635894868472      -0.7904432337746753
4.89E9                   0.09211660382205232      -0.8006657528135506
4.92E9                   0.023457239016620692     -0.8050351390389029
4.95E9                   -0.04523006911790724     -0.8035357415705082
4.98E9                   -0.1134448405306488      -0.796194847074572
5.01E9                   -0.18069146076609624     -0.7830823618398696
5.04E9                   -0.24648281178351078     -0.7643101762338573
5.07E9                   -0.310343826457802       -0.7400312194609947
5.1E9                    -0.37181494096707546     -0.7104382149598041
5.13E9                   -0.4304554215963494      -0.6757621481952039
5.16E9                   -0.48584654420551554     -0.6362704591545327
5.19E9                   -0.5375946054214683      -0.5922649719958434
5.22E9                   -0.5853337442583119      -0.5440795749221657
5.25E9                   -0.6287285522018367      -0.49207766502186506
5.28E9                   -0.667476449318724       -0.43664937617916294
5.31E9                   -0.7013098052856988      -0.3782086122373111
5.34E9                   -0.7299977874235236      -0.3171899114484056
5.37E9                   -0.7533479224433712      -0.25404517051059544
5.4E9                    -0.7712073633434127      -0.18924025689215715
5.43E9                   -0.7834638568017787      -0.1232515367213293
5.46E9                   -0.7900464086308528      -0.056562343758471446
5.49E9                   -0.7909256458656952      0.010340586574106855
5.52E9                   -0.786113874393538       0.07697069463656256
5.55E9                   -0.775664831419714       0.1428451615123847
5.58E9                   -0.7596731330558687      0.20748843653061677
5.61E9                   -0.7382734190835123      0.27043570084862106
5.64E9                   -0.711639199594409       0.33123623950631265
5.67E9                   -0.6799814117515969      0.3894566934518433
5.7E9                    -0.6435466991356542      0.4446841633264634
5.73E9                   -0.6026154307909773      0.49652913830030854
5.76E9                   -0.5574994811241079      0.5446282266878871
5.79E9                   -0.5085397942830074      0.5886466697459496
5.82E9                   -0.45610375703575023     0.6282806248055528
5.85E9                   -0.4005824025332581      0.6632592075932432
5.88E9                   -0.34238746533852754     0.6933462850510743
5.91E9                   -0.2819483069637979      0.7183420098637407
5.94E9                   -0.21970873167790916     0.738084087293447
5.97E9                   -0.1561237142571569      0.7524487650645165
6.0E9                    -0.0916560634293683      0.7613515385436831
