% Model:              three_layers reality at 0.1mm.mph
% Version:            COMSOL 5.6.0.280
% Date:               Feb 23 2022, 18:58
% Table:              表格 1 - 全局计算 1
% freq (Hz)              real(emw.S11) (1)        imag(emw.S11) (1)
300000000                0.5980332460166132       -0.7286536536895145
330000000                0.5323496088862261       -0.7771574496410301
360000000                0.4628461617218076       -0.8198217047654435
390000000                0.3900286012699155       -0.8563424297420902
420000000                0.3144292942608464       -0.8864600684038948
450000000                0.23660271420743584      -0.9099616805343334
480000000                0.15712090988946842      -0.9266827225768148
510000000                0.07656896452693047      -0.9365084285885935
540000000                -0.004459566088916844    -0.9393747914343552
570000000                -0.0853672296728167      -0.9352691432019165
600000000                -0.1655572516453983      -0.9242303345648244
630000000                -0.24443808420534055     -0.9063485140809281
660000000                -0.3214279039213692      -0.8817645102539873
690000000                -0.39595902790496496     -0.850668821705535
720000000                -0.4674822184829046      -0.8133002232507529
750000000                -0.5354708454980456      -0.7699439982846624
780000000                -0.5994248748427234      -0.7209298110156537
810000000                -0.6588746533992776      -0.6666292345029627
840000000                -0.7133844611094702      -0.6074529533608896
870000000                -0.7625558020764798      -0.5438476630197331
900000000                -0.806030409258063       -0.47629268924374896
930000000                -0.8434929384910946      -0.40529635481439963
960000000                -0.8746733306330277      -0.3313921218142375
990000000                -0.8993488228717574      -0.2551345402783216
1020000000               -0.9173455932736028      -0.17709503553944544
1050000000               -0.9285400255966346      -0.09785756804785456
1080000000               -0.9328595846660447      -0.018014200254338385
1110000000               -0.9302832957235918      0.061839393510960405
1140000000               -0.92084182468297        0.1411084384467985
1170000000               -0.9046171594855841      0.21920355569602645
1200000000               -0.8817418962052157      0.2955452078481566
1230000000               -0.8523981367550348      0.369568058505409
1260000000               -0.8168160084697105      0.44072521109326895
1290000000               -0.7752718186805003      0.5084922942282014
1320000000               -0.7280858607833155      0.5723713613760892
1350000000               -0.6756198904685601      0.6318945756533936
1380000000               -0.6182742941012699      0.6866276511845252
1410000000               -0.5564849729036403      0.7361730259559668
1440000000               -0.49071996907902193     0.7801727427898105
1470000000               -0.42147586171635576     0.8183110179660229
1500000000               -0.3492739619077435      0.8503164796755706
1530000000               -0.2746563376245545      0.8759640614395899
1560000000               -0.19818170005467267     0.8950765384023951
1590000000               -0.12042118376772067     0.9075256974180157
1620000000               -0.041954053273184404    0.9132331348535024
1650000000               0.03663663106674147      0.9121706788693559
1680000000               0.11476835501715038      0.904360435890027
1710000000               0.19186346812517296      0.8898744637918736
1740000000               0.267353445257136        0.8688340770406354
1770000000               0.3406830610383688       0.841408791683875
1800000000               0.4113144475434931       0.8078149205455422
1830000000               0.4787310064887727       0.7683138313742405
1860000000               0.5424411486149675       0.7232098829945524
1890000000               0.6019818348444037       0.6728480563744623
1920000000               0.6569218949022567       0.6176112997644403
1950000000               0.7068651015522107       0.5579176084244324
1980000000               0.7514529799637075       0.4942168614233291
2010000000               0.7903673342113525       0.42698743906956715
2040000000               0.8233324747895424       0.3567326459298208
2070000000               0.850117133427927        0.2839769651705212
2100000000               0.8705360536677266       0.20926217069300607
2130000000               0.8844512479326938       0.13314332383592314
2.16E9                   0.8917729138617997       0.05618468102092366
2.19E9                   0.8924600039952921       -0.021044461397403208
2.22E9                   0.8865204433795818       -0.0979739597553169
2.25E9                   0.8740109885891951       -0.1740370271132793
2.28E9                   0.8550367198350973       -0.24867441950613053
2.31E9                   0.8297501577563786       -0.3213385675790104
2.34E9                   0.7983500033476756       -0.39149760566966696
2.37E9                   0.7610795179602818       -0.45863924280402535
2.4E9                    0.7182245860900324       -0.5222744289948492
2.43E9                   0.6701115186248341       -0.5819408006740291
2.46E9                   0.6171046386477169       -0.6372059250055074
2.49E9                   0.5596036515420079       -0.687670372480487
2.52E9                   0.4980407693469047       -0.73297061980682
2.55E9                   0.4328775636133873       -0.7727817446768401
2.58E9                   0.3646015515550559       -0.8068198548066349
2.61E9                   0.293722550291765        -0.8348442016959287
2.64E9                   0.2207688463200441       -0.8566589502809706
2.67E9                   0.14628322536592755      -0.8721145925339798
2.7E9                    0.07081890073750507      -0.8811090015095921
2.73E9                   -0.005064627338373562    -0.883588124730188
2.76E9                   -0.08080575139625915     -0.8795463159904227
2.79E9                   -0.15584494623360304     -0.8690263050218245
2.82E9                   -0.22962893832018605     -0.8521188055338165
2.85E9                   -0.3016148249167967      -0.8289617640826313
2.88E9                   -0.3712741120941072      -0.7997392546604492
2.91E9                   -0.4380966411575363      -0.7646800265962227
2.94E9                   -0.5015943732922881      -0.7240557161691169
2.97E9                   -0.5613050029460644      -0.6781787352472803
3.0E9                    -0.6167953719390068      -0.6273998528790413
3.03E9                   -0.6676646574013777      -0.5721054885592064
3.06E9                   -0.7135473086806354      -0.5127147382657273
3.09E9                   -0.7541157102385038      -0.44967615669172256
3.12E9                   -0.7890825497895393      -0.3834643212999622
3.15E9                   -0.8182028735817423      -0.31457620544402837
3.18E9                   -0.8412758131653061      -0.24352738962047954
3.21E9                   -0.8581459709514322      -0.1708481409979878
3.24E9                   -0.868704454642553       -0.0970793925187915
3.27E9                   -0.8728895536494271      -0.022768653356884085
3.3E9                    -0.8706870534866584      0.05153411689784796
3.33E9                   -0.8621301871098469      0.1252806381116664
3.36E9                   -0.8472992250080358      0.19792841114224685
3.39E9                   -0.8263207086958885      0.26894475934456524
3.42E9                   -0.7993663350207179      0.33781077860904674
3.45E9                   -0.766651501421298       0.40402516547938777
3.48E9                   -0.7284335250136033      0.4671078936576418
3.51E9                   -0.685009551098347       0.5266037104984583
3.54E9                   -0.6367141693947235      0.5820854265261555
3.57E9                   -0.5839167590545844      0.6331569727771545
3.6E9                    -0.5270185858965923      0.6794562032242363
3.63E9                   -0.4664496776620114      0.7206574220059253
3.66E9                   -0.4026655048020105      0.7564736183451417
3.69E9                   -0.33614349550419603     0.7866583952488152
3.72E9                   -0.2673794145046888      0.8110075812244374
3.75E9                   -0.19688363546178778     0.8293605174791202
3.78E9                   -0.12517733671435513     0.8416010160964968
3.81E9                   -0.05278864980507319     0.847657987779186
3.84E9                   0.019751210775923234     0.8475057406988434
3.87E9                   0.09191180970207356      0.8411639545987253
3.9E9                    0.16316731986583424      0.8286973361905581
3.93E9                   0.23300029541090927      0.8102149628081183
3.96E9                   0.3009053673942379       0.785869321305014
3.99E9                   0.36639284088164764      0.7558550489267172
4.02E9                   0.4289921717718178       0.7204073829825575
4.05E9                   0.48825530042064735      0.6798003272227966
4.08E9                   0.5437598178290755       0.6343445452369552
4.11E9                   0.5951119400733739       0.5843849943648219
4.14E9                   0.6419492673910221       0.5302983173000214
4.17E9                   0.6839433065272087       0.47249001181782885
4.2E9                    0.7208017377852429       0.4113914016854843
4.23E9                   0.752270411611216        0.34745643329690734
4.26E9                   0.7781350626741084       0.2811583233129972
4.29E9                   0.7982227322609546       0.21298608240848538
4.32E9                   0.8124028919376105       0.14344093987294468
4.35E9                   0.8205882630361441       0.07303269337133259
4.38E9                   0.8227353277730902       0.002276008135137206
4.41E9                   0.8188445290342994       -0.068313310036194
4.44E9                   0.8089601572081894       -0.13822204292226323
4.47E9                   0.7931699242288559       -0.20694326366332705
4.5E9                    0.7716042270322601       -0.2739799901534328
4.53E9                   0.7444351050156442       -0.3388487617908267
4.56E9                   0.7118748985380035       -0.4010831136644485
4.59E9                   0.6741746181344755       -0.46023692259623444
4.62E9                   0.631622036517403        -0.5158876007034711
4.65E9                   0.584539517770974        -0.5676391133986086
4.68E9                   0.5332816000207629       -0.6151248005446773
4.71E9                   0.47823234932695463      -0.6580099813200514
4.74E9                   0.4198025035400608       -0.6959943250776356
4.77E9                   0.3584264255943305       -0.7288139718916002
4.8E9                    0.29455888654750345      -0.7562433874351782
4.83E9                   0.2286716999723007       -0.7780969376127522
4.86E9                   0.16125023098828706      -0.7942301693618773
4.89E9                   0.0927898054740842       -0.8045407855426758
4.92E9                   0.023792047089518854     -0.808969304202833
4.95E9                   -0.045238828493555344    -0.807499395597219
4.98E9                   -0.11379973169503065     -0.8001578939960556
5.01E9                   -0.1813923989277001      -0.7870144851925842
5.04E9                   -0.24752704454464036     -0.7681810743483477
5.07E9                   -0.31172593661853826     -0.7438108420824784
5.1E9                    -0.37352687064575596     -0.7140969991649064
5.13E9                   -0.4324865173602689      -0.6792712516792285
5.16E9                   -0.48818362286121864     -0.6396019890492213
5.19E9                   -0.5402220399136515      -0.5953922075149762
5.22E9                   -0.588233569174914       -0.5469771821256787
5.25E9                   -0.6318805882046523      -0.494721902040633
5.28E9                   -0.6708584457194008      -0.4390182871974457
5.31E9                   -0.7048975998172511      -0.3802822084988451
5.34E9                   -0.7337654819549331      -0.31895033765365793
5.37E9                   -0.757268073171201       -0.25547685513387614
5.4E9                    -0.7752511838418674      -0.19033004512689605
5.43E9                   -0.7876014321811614      -0.12398880508443569
5.46E9                   -0.7942469190790238      -0.056939095581964895
5.49E9                   -0.7951575978898934      0.010329645364089235
5.52E9                   -0.7903453381129428      0.07732809990495193
5.55E9                   -0.7798636823079503      0.1435706559159073
5.58E9                   -0.7638072965019304      0.2085789554606053
5.61E9                   -0.7423111160816663      0.2718853796689034
5.64E9                   -0.7155491917703902      0.33303644231264384
5.67E9                   -0.6837332438036757      0.39159606346768605
5.7E9                    -0.647110936656478       0.4471486948277768
5.73E9                   -0.6059638913758509      0.49930226968846303
5.76E9                   -0.560605456678769       0.547690954035368
5.79E9                   -0.5113782626218474      0.591977679786789
5.82E9                   -0.45865158102128567     0.6318564461927514
5.85E9                   -0.40281851531833707     0.6670543790539565
5.88E9                   -0.3442930404256031      0.697333539108934
5.91E9                   -0.2835069119562297      0.7224924707739373
5.94E9                   -0.22090646464237906     0.74236748184957
5.97E9                   -0.15694932163964062     0.7568336448836075
6.0E9                    -0.09210103851999599     0.7658055123175552
