% Model:              three_layers reality at 0.1mm.mph
% Version:            COMSOL 5.6.0.280
% Date:               Feb 23 2022, 20:51
% Table:              表格 1 - 全局计算 1
% freq (Hz)              real(emw.S11) (1)        imag(emw.S11) (1)
300000000                0.44852437298010256      -0.8345243606207045
330000000                0.3577385717506987       -0.8751391948792673
360000000                0.26351287744787         -0.906044113806241
390000000                0.16685068878718054      -0.9269599316176198
420000000                0.06878261455964783      -0.937708923573628
450000000                -0.029645048347215486    -0.9382184162375851
480000000                -0.12738201958116555     -0.9285227578805124
510000000                -0.2233857754494565      -0.9087637750436329
540000000                -0.3166331826843676      -0.8791897979420069
570000000                -0.406131891323635       -0.8401533268631458
600000000                -0.49093135474389477     -0.7921074096152507
630000000                -0.5701333517091259      -0.7356008029421248
660000000                -0.642901890936723       -0.6712719965757904
690000000                -0.7084723863648269      -0.599842186247236
720000000                -0.7661599996363475      -0.5221072902366839
750000000                -0.8153670562472851      -0.43892911257314077
780000000                -0.855589453229862       -0.35122576358236424
810000000                -0.8864219876799494      -0.25996145616112576
840000000                -0.9075625491319113      -0.16613580185850085
870000000                -0.9188151322210811      -0.0707727356160808
900000000                -0.9200916404681604      0.02509079822567058
930000000                -0.9114124668650092      0.1204162649805065
960000000                -0.8929058516019843      0.21417492933825477
990000000                -0.86480603214327        0.3053590832384817
1020000000               -0.8274502152242024      0.39299298255146703
1050000000               -0.7812744142747013      0.4761433680251701
1080000000               -0.7268082089861985      0.5539294522326556
1110000000               -0.6646684960426485      0.6255322620719301
1140000000               -0.5955523111827775      0.6902032355092941
1170000000               -0.520228812970286       0.7472719811846228
1200000000               -0.43953052701794093     0.7961531210319468
1230000000               -0.35434395721515966     0.8363521474835776
1260000000               -0.2655996756941254      0.8674702399083485
1290000000               -0.1742620081607898      0.8892079974121038
1320000000               -0.08131843357973328     0.9013680585479508
1350000000               0.012231181225090105     0.9038565915507824
1380000000               0.1053853919084684       0.8966836517995834
1410000000               0.1971519131256354       0.8799624159316594
1440000000               0.2865581654408322       0.8539073143537254
1470000000               0.37266152112657025      0.8188310955825804
1500000000               0.4545591423551827       0.7751408669046356
1530000000               0.53139731186294         0.7233331660518703
1560000000               0.602380163185158        0.6639881279876129
1590000000               0.666777725751286        0.5977628192458156
1620000000               0.7239332085563884       0.525383819917466
1650000000               0.773269455761453        0.4476391395175557
1680000000               0.8142945168611263       0.36536955877391264
1710000000               0.8466062845963549       0.27945949329674946
1740000000               0.8698961637579832       0.19082747890105076
1770000000               0.8839517449549135       0.10041638015147372
1800000000               0.8886584679642223       0.009183425118174843
1830000000               0.8840002701394273       -0.08190983058663998
1860000000               0.8700592263099467       -0.17190750884469794
1890000000               0.8470141973583687       -0.2598692836912824
1920000000               0.8151385154567272       -0.3448800303745041
1950000000               0.7747967443545427       -0.426059159380348
1980000000               0.7264405628193871       -0.5025695543032324
2010000000               0.6706038275723554       -0.5736260436388
2040000000               0.6078968772848938       -0.6385033514676881
2070000000               0.5390001386165698       -0.6965434910573647
2100000000               0.46465708449204507      -0.7471625874928587
2130000000               0.38566656670094396      -0.7898571368359921
2.16E9                   0.30287449190434973      -0.8242097182318298
2.19E9                   0.21716472812477985      -0.8498941484211655
2.22E9                   0.12944903291009205      -0.8666799650207175
2.25E9                   0.04065574320297021      -0.8744359005185208
2.28E9                   -0.048282907739423744    -0.8731316585727034
2.31E9                   -0.13644450057119464     -0.8628369662967477
2.34E9                   -0.2229299251688225      -0.8437169266915453
2.37E9                   -0.30687448784005655     -0.8160236208751004
2.4E9                    -0.38745444421465564     -0.7800857280496432
2.43E9                   -0.4638885039386924      -0.736299534847543
2.46E9                   -0.5354366789996161      -0.6851243516244052
2.49E9                   -0.6014004959195565      -0.6270826444019114
2.52E9                   -0.6611274297267871      -0.5627621580737114
2.55E9                   -0.7140194908273768      -0.49281641845351115
2.58E9                   -0.7595437009202315      -0.41796149313480335
2.61E9                   -0.7972419492836809      -0.338969012129588
2.64E9                   -0.8267387526233764      -0.25665667747294807
2.67E9                   -0.8477465708115585      -0.1718776188037866
2.7E9                    -0.8600689691351686      -0.08550952727482357
2.73E9                   -0.8636020858783567      0.0015559677729358526
2.76E9                   -0.8583347914304138      0.08842351903577146
2.79E9                   -0.8443477928726342      0.17420385705144334
2.82E9                   -0.8218118288068418      0.25802317732424024
2.85E9                   -0.790985031620125       0.3390321260306565
2.88E9                   -0.7522095010560035      0.41641437009223126
2.91E9                   -0.7059071216548305      0.4893947171928864
2.94E9                   -0.6525746573363087      0.5572467374402452
2.97E9                   -0.5927781629706419      0.6192998304679966
3.0E9                    -0.5271467615313873      0.6749456793445275
3.03E9                   -0.45636584464278696     0.7236440340262507
3.06E9                   -0.38116976278004994     0.7649277717535565
3.09E9                   -0.30233407880222246     0.7984071885115115
3.12E9                   -0.22066746411307384     0.8237734843234734
3.15E9                   -0.13700332052169273     0.8408014147798234
3.18E9                   -0.05219121222593533     0.8493510913593227
3.21E9                   0.03291180850087177      0.8493689227381872
3.24E9                   0.11744990132915181      0.8408876975651683
3.27E9                   0.20057708713015893      0.8240258151801376
3.3E9                    0.28146577408142176      0.7989856740589457
3.33E9                   0.359315090774863        0.7660512285893452
3.36E9                   0.43335895605239116      0.725584724074515
3.39E9                   0.5028738107221866       0.6780226194460331
3.42E9                   0.5671859280057107       0.6238707091431785
3.45E9                   0.6256782075067346       0.5636984628568914
3.48E9                   0.6777963451094848       0.49813261623599336
3.51E9                   0.7230542612096973       0.42785006899922107
3.54E9                   0.7610386676104547       0.35357017830807913
3.57E9                   0.7914126636852775       0.2760465715888169
3.6E9                    0.8139182781465379       0.19605863793186085
3.63E9                   0.8283779130832478       0.11440288282340128
3.66E9                   0.8346946962199162       0.03188434092315327
3.69E9                   0.832851797348069        -0.05069176659374756
3.72E9                   0.8229108080072219       -0.13252796636881473
3.75E9                   0.8050093172181918       -0.2128419268624473
3.78E9                   0.7793578426153925       -0.2908732167350831
3.81E9                   0.7462362981002308       -0.36588937704626245
3.84E9                   0.7059901918522424       -0.4371913148325554
3.87E9                   0.6590267390480424       -0.5041180988122995
3.9E9                    0.6058110263092623       -0.5660513137251659
3.93E9                   0.5468622746208812       -0.6224191824202263
3.96E9                   0.48275012983990123      -0.6727006655855463
3.99E9                   0.41409079975665347      -0.7164296839916067
4.02E9                   0.34154279359804485      -0.7531994889975426
4.05E9                   0.26580202852086643      -0.7826670694753936
4.08E9                   0.18759614619715262      -0.8045573703971783
4.11E9                   0.10767800422476946      -0.8186670427918771
4.14E9                   0.02681843377072468      -0.8248674566218747
4.17E9                   -0.05420154755990972     -0.8231067752256727
4.2E9                    -0.13459882960647038     -0.8134109863299671
4.23E9                   -0.21359637435229237     -0.7958838812894646
4.26E9                   -0.2904312570475824      -0.7707060478011178
4.29E9                   -0.3643624506204316      -0.7381329792166682
4.32E9                   -0.43467827950007615     -0.6984924053190721
4.35E9                   -0.5007035097604642      -0.6521809253533211
4.38E9                   -0.5618060569963047      -0.5996599904382437
4.41E9                   -0.6174032845560016      -0.5414512550056072
4.44E9                   -0.6669678424714773      -0.4781313056481709
4.47E9                   -0.7100329736741275      -0.4103257829013469
4.5E9                    -0.7461971982987698      -0.3387029328275143
4.53E9                   -0.7751282838076708      -0.263966653942346
4.56E9                   -0.7965664191656556      -0.18684913413812596
4.59E9                   -0.8103265338666834      -0.1081031962200779
4.62E9                   -0.8162997344555383      -0.02849448486190971
4.65E9                   -0.8144538677722647      0.051206371883247226
4.68E9                   -0.8048332544487011      0.13023150923444315
4.71E9                   -0.787557659144852       0.20782339368394864
4.74E9                   -0.7628205673939203      0.2832421627541008
4.77E9                   -0.7308868205167104      0.3557727178517029
4.8E9                    -0.6920896269281854      0.4247315627386976
4.83E9                   -0.646826935584472       0.48947336543470527
4.86E9                   -0.5955571420593563      0.5493971853972452
4.89E9                   -0.5387941098017582      0.6039522656733162
4.92E9                   -0.47710152739322087     0.6526432585715765
4.95E9                   -0.41108667636898466     0.6950347461576459
4.98E9                   -0.3413937386485117      0.7307549378367516
5.01E9                   -0.2686968140381943      0.7594984732448262
5.04E9                   -0.193692836239922       0.7810283212450323
5.07E9                   -0.11709456376592993     0.7951768331860083
5.1E9                    -0.03962377858798636     0.801846065650469
5.13E9                   0.03799524360534026      0.8010075178323302
5.16E9                   0.11504200495206512      0.792701417436052
5.19E9                   0.19080587127239604      0.7770356341529483
5.22E9                   0.26459205873513003      0.7541842180976847
5.25E9                   0.33572756496136535      0.7243854868288722
5.28E9                   0.40356700447148486      0.6879395567239492
5.31E9                   0.46749822440526523      0.6452052512319805
5.34E9                   0.5269475370058165       0.5965964045596247
5.37E9                   0.5813844323442492       0.5425776719856293
5.4E9                    0.6303257147460152       0.4836600117001588
5.43E9                   0.6733391001798055       0.4203959950417517
5.46E9                   0.7100463784073003       0.35337504098026673
5.49E9                   0.7401262601468347       0.28321858667951333
5.52E9                   0.7633169967883063       0.21057513197040834
5.55E9                   0.7794187955984736       0.13611505355462286
5.58E9                   0.7882959787243315       0.06052508232240679
5.61E9                   0.789878768310669        -0.015497628793456762
5.64E9                   0.7841645362882933       -0.09125185640868907
5.67E9                   0.7712183466206867       -0.16603900730377313
5.7E9                    0.7511726486301811       -0.23917001494387
5.73E9                   0.7242260541563251       -0.3099722170932456
5.76E9                   0.690641234511298        -0.37779598532498065
5.79E9                   0.650742071292741        -0.44202092568024337
5.82E9                   0.6049102460389609       -0.502061567930356
5.85E9                   0.553581433235936        -0.55737256639516
5.88E9                   0.4972411829196027       -0.6074534984051123
5.91E9                   0.4364204874459112       -0.6518533424769832
5.94E9                   0.371690967712644        -0.6901746604831962
5.97E9                   0.30365960767911154      -0.7220774335946383
6.0E9                    0.23296300301065057      -0.7472824451092352
