% Model:              three_layers reality at 0.1mm.mph
% Version:            COMSOL 5.6.0.280
% Date:               Feb 22 2022, 16:03
% Table:              表格 1 - 全局计算 1
% freq (Hz)              real(emw.S11) (1)        imag(emw.S11) (1)
300000000                0.4693941278461063       -0.8706684636420919
330000000                0.37345314678240343      -0.9154622173870731
360000000                0.27335837774326993      -0.9497276972308475
390000000                0.1702583406210385       -0.9730902375472891
420000000                0.06533532234693222      -0.9853001834653151
450000000                -0.04020857014701012     -0.9862360308606564
480000000                -0.14516556965086186     -0.9759059174307488
510000000                -0.24833644459962284     -0.9544474900257953
540000000                -0.34854455811553653     -0.9221261781375031
570000000                -0.44464962108564327     -0.8793319135646102
600000000                -0.5355609732611083      -0.8265743498614788
630000000                -0.6202502333690425      -0.7644766498588782
660000000                -0.697763165605654       -0.6937679257085277
690000000                -0.7672306210976205      -0.6152744306228419
720000000                -0.8278784234298766      -0.5299096168215538
750000000                -0.8790360815761424      -0.43866318740606797
780000000                -0.9201442285616542      -0.3425892820468483
810000000                -0.9507607008245588      -0.24279394670540647
840000000                -0.9705651911105483      -0.14042204582580936
870000000                -0.9793624263776648      -0.03664378190521438
900000000                -0.9770838416959935      0.06735900940665068
930000000                -0.9637877405369967      0.17040661828840753
960000000                -0.9396579515955482      0.2713351048290435
990000000                -0.9050010115375584      0.36900966199050855
1020000000               -0.8602419216336475      0.4623375372477531
1050000000               -0.8059185439850739      0.5502803598112668
1080000000               -0.7426747195713057      0.6318657302152155
1110000000               -0.671252205364265       0.706197940550418
1140000000               -0.5924815412202881      0.7724677065354012
1170000000               -0.5072719689833075      0.8299608069606763
1200000000               -0.4166005358403479      0.8780655416169948
1230000000               -0.32150052171262855     0.9162789349984689
1260000000               -0.22304933622310685     0.9442116298178296
1290000000               -0.12235603427775672     0.961591431524759
1320000000               -0.02054860088737769     0.9682654820500031
1350000000               0.08123884449751789      0.964201057827016
1380000000               0.18187877618059894      0.9494850035259308
1410000000               0.28026277893091706      0.9243218286506425
1440000000               0.37531371493022014      0.8890305090145312
1470000000               0.4659974096804863       0.8440400489935698
1500000000               0.5513337340212908       0.7898838732189204
1530000000               0.6304069689451922       0.7271931279049086
1560000000               0.7023753503002269       0.6566889823097368
1590000000               0.7664797017950296       0.5791740297397672
1620000000               0.8220510766242946       0.49552289504696206
1650000000               0.8685173403140528       0.4066721618841099
1680000000               0.9054086402274912       0.313609737702495
1710000000               0.932361720037558        0.217363778047432
1740000000               0.9491230505503201       0.11899129385601262
1770000000               0.9555507613623399       0.019566566298523977
1800000000               0.9516153708671571       -0.07983050683682916
1830000000               0.9373993250313032       -0.17812601092657088
1860000000               0.9130953681245977       -0.27426344155878035
1890000000               0.8790037810541368       -0.3672148446720551
1920000000               0.8355285350437782       -0.4559915622229963
1950000000               0.7831724198456329       -0.5396544845450966
1980000000               0.7225312159182988       -0.6173237220045581
2010000000               0.6542869881231156       -0.6881876232405956
2040000000               0.579200582594364        -0.7515110859801777
2070000000               0.4981034050954895       -0.8066431293659136
2100000000               0.41188854332255276      -0.8530237221145041
2130000000               0.3215012592097017       -0.8901898833481529
2.16E9                   0.2279288125361376       -0.9177810778702125
2.19E9                   0.13218948174074896      -0.9355438864206272
2.22E9                   0.03532054397340687      -0.9433357977045849
2.25E9                   -0.06163505959849509     -0.9411276946957806
2.28E9                   -0.1576434587565622      -0.929004202512262
2.31E9                   -0.2516954600472108      -0.9071607149959402
2.34E9                   -0.34282142520672115     -0.8758960821906584
2.37E9                   -0.430102815376579       -0.8356011634736771
2.4E9                    -0.5126780000885515      -0.7867456393927338
2.43E9                   -0.5897422146478596      -0.7298671897217575
2.46E9                   -0.6605449064832045      -0.6655663594043002
2.49E9                   -0.7243893432991322      -0.5945069587194401
2.52E9                   -0.7806375550334681      -0.5174183497621826
2.55E9                   -0.8287200451279381      -0.4350953002671598
2.58E9                   -0.8681472791190137      -0.3483931780918366
2.61E9                   -0.8985199619779135      -0.2582188331381615
2.64E9                   -0.9195365223867328      -0.16551883502601364
2.67E9                   -0.9309975871215492      -0.07126672571379554
2.7E9                    -0.9328079275296602      0.02354965145871607
2.73E9                   -0.924976492439453       0.11794026546229996
2.76E9                   -0.9076150116432462      0.21092432441145403
2.79E9                   -0.8809354769751465      0.30154103199983706
2.82E9                   -0.8452466729574901      0.3888597189710591
2.85E9                   -0.8009498496626309      0.47198937581908496
2.88E9                   -0.7485335933739267      0.5500875832796072
2.91E9                   -0.6885679393207792      0.6223688120864536
2.94E9                   -0.6216977726883681      0.6881120473636253
2.97E9                   -0.5486355720406714      0.7466676848178151
3.0E9                    -0.4701535589778132      0.797463644234204
3.03E9                   -0.3870753276023424      0.8400106485667612
3.06E9                   -0.30026703565040025     0.8739066233455337
3.09E9                   -0.21062824608187194     0.8988401796744594
3.12E9                   -0.11908251241993231     0.9145931545470717
3.15E9                   -0.026567803439209038    0.9210421934289397
3.18E9                   0.0659731376201279       0.9181593714334266
3.21E9                   0.15760240720648522      0.9060118598328035
3.24E9                   0.24739644169231614      0.8847606530764532
3.27E9                   0.3344553225812057       0.8546583771199416
3.3E9                    0.4179118108372086       0.8160462023682288
3.33E9                   0.4969400378057019       0.7693498843476225
3.36E9                   0.5707637795123505       0.7150749537601997
3.39E9                   0.6386642359703121       0.6538010769298562
3.42E9                   0.6999872274288802       0.5861756105029267
3.45E9                   0.7541497067333083       0.5129063834537203
3.48E9                   0.8006454741237111       0.4347537572996689
3.51E9                   0.8390499723188682       0.3525220431430072
3.54E9                   0.8690240412984583       0.2670503902113406
3.57E9                   0.8903165286973572       0.17920330085359878
3.6E9                    0.9027656861110256       0.08986096335846966
3.63E9                   0.9062993315931109       -9.038217488732325E-5
3.66E9                   0.900933817108686        -0.08976782557066404
3.69E9                   0.8867718965243878       -0.17830071340807177
3.72E9                   0.8639996366488791       -0.26483895221744364
3.75E9                   0.8328825482989295       -0.34856056209642694
3.78E9                   0.7937611390406509       -0.42867840362756865
3.81E9                   0.7470461060863116       -0.5044460578394807
3.84E9                   0.693213390527216        -0.575162910173226
3.87E9                   0.63279928758827         -0.6401785726346443
3.9E9                    0.5663957365585033       -0.6988968566023082
3.93E9                   0.494645798180277        -0.7507795509324894
3.96E9                   0.4182391905880744       -0.7953502365392643
3.99E9                   0.33790764068292384      -0.8321982705139634
4.02E9                   0.2544197590931447       -0.8609829222708667
4.05E9                   0.16857518485856302      -0.8814374870959999
4.08E9                   0.08119785886995157      -0.8933730884888038
4.11E9                   -0.006871564449355639    -0.8966818412170543
4.14E9                   -0.0947840155176344      -0.8913390855349587
4.17E9                   -0.18169076858931935     -0.8774044983979117
4.2E9                    -0.2667523750784412      -0.8550220061450609
4.23E9                   -0.3491475060441599      -0.8244185318092395
4.26E9                   -0.42808149953656455     -0.785901685096523
4.29E9                   -0.5027944845949808      -0.7398565339353126
4.32E9                   -0.5725690207371404      -0.6867415871463317
4.35E9                   -0.6367372330294223      -0.6270840829557355
4.38E9                   -0.6946874330221218      -0.5614746372845674
4.41E9                   -0.7458702008680169      -0.4905612761832247
4.44E9                   -0.7898038768888205      -0.4150428676530181
4.47E9                   -0.8260793851753077      -0.3356619799944364
4.5E9                    -0.854364297680694       -0.25319721990889826
4.53E9                   -0.8744060482661858      -0.1684551359523241
4.56E9                   -0.8860342224386764      -0.08226180335995303
4.59E9                   -0.8891618772861629      0.004545770936228372
4.62E9                   -0.8837858835600132      0.09112827379292521
4.65E9                   -0.8699863223642392      0.17665259828082017
4.68E9                   -0.8479250042299249      0.2603001228423588
4.71E9                   -0.8178431985748775      0.34127467484585927
4.74E9                   -0.7800586587569658      0.418810138386938
4.77E9                   -0.7349620017257545      0.49217769755029395
4.8E9                    -0.683012461745978       0.5606927133489756
4.83E9                   -0.6247330031164513      0.6237212101103821
4.86E9                   -0.5607047652959873      0.6806859037372802
4.89E9                   -0.4915608341504717      0.7310716583468897
4.92E9                   -0.4179793813068079      0.774430228460411
4.95E9                   -0.3406762754632284      0.8103841442584371
4.98E9                   -0.26039732783890734     0.8386296297767389
5.01E9                   -0.1779103732619973      0.8589385027650105
5.04E9                   -0.09399739846997619     0.8711590788740232
5.07E9                   -0.009446903969254627    0.8752161774602749
5.1E9                    0.07495337396297667      0.871110383791417
5.13E9                   0.15842333868245256      0.8589167443092981
5.16E9                   0.24019705022909507      0.838783044712768
5.19E9                   0.31952898621809744      0.8109277468117013
5.22E9                   0.3957001499798466       0.775637563598136
5.25E9                   0.46802406700521004      0.7332645748256624
5.28E9                   0.5358526096604387       0.6842227683587307
5.31E9                   0.5985815009821298       0.6289839493594346
5.34E9                   0.6556553189274837       0.5680730643608963
5.37E9                   0.7065718703392219       0.5020630871426334
5.4E9                    0.7508859046141453       0.4315696587998108
5.43E9                   0.7882122417277828       0.35724564667118547
5.46E9                   0.8182284522918402       0.2797757039714733
5.49E9                   0.8406772285775951       0.19987081280869912
5.52E9                   0.8553685323804263       0.11826271560499094
5.55E9                   0.862181522677307        0.035698105398798474
5.58E9                   0.8610661798468421       -0.047067541594572035
5.61E9                   0.8520444746282121       -0.1292765549866851
5.64E9                   0.8352108927719354       -0.21017606418288157
5.67E9                   0.810732130265518        -0.2890252867656166
5.7E9                    0.7788458254795337       -0.36510291312756893
5.73E9                   0.739858290723383        -0.4377143338098005
5.76E9                   0.6941413250961098       -0.5061984602544013
5.79E9                   0.6421282915356731       -0.5699339637504126
5.82E9                   0.5843096786677288       -0.6283448782169596
5.85E9                   0.5212283234551702       -0.6809056273653793
5.88E9                   0.45347436917967965      -0.7271455919472537
5.91E9                   0.3816799300677374       -0.7666533092571712
5.94E9                   0.3065133783156938       -0.7990803189240141
5.97E9                   0.22867317691152014      -0.824144582638721
6.0E9                    0.14888123517035937      -0.8416333478557256
