% Model:              three_layers reality at 0.1mm.mph
% Version:            COMSOL 5.6.0.280
% Date:               Mar 9 2022, 10:54
% Table:              表格 1 - 全局计算 1
% freq (Hz)              real(emw.S11) (1)        imag(emw.S11) (1)
300000000                0.5925522251691538       -0.7737940828763329
330000000                0.5196450117438708       -0.8242675993735133
360000000                0.4425265355953295       -0.867923800436289
390000000                0.36182200888444815      -0.9044141456932207
420000000                0.2781877228602973       -0.9334459262202492
450000000                0.192304749831246        -0.9547854671971845
480000000                0.10487383837447606      -0.9682604129697776
510000000                0.016609848080651624     -0.9737616495335125
540000000                -0.07176402023341825     -0.9712446940563503
570000000                -0.15952214691056898     -0.9607305324189422
600000000                -0.24594251810154058     -0.9423058892961363
630000000                -0.3303127936655235      -0.9161229195682769
660000000                -0.4119363666388653      -0.8823983140713985
690000000                -0.49013835076372064     -0.8414118183876538
720000000                -0.5642714400758306      -0.7935041687818346
750000000                -0.6337215792316395      -0.7390744555419828
780000000                -0.6979133856484471      -0.6785769303467277
810000000                -0.756315264581861       -0.6125172815388353
840000000                -0.808444161501252       -0.5414484065671049
870000000                -0.8538698977578587      -0.4659657187816768
900000000                -0.8922190399559856      -0.38670203157343414
930000000                -0.9231782586309706      -0.30432206811434337
960000000                -0.946497136397532       -0.21951665099030349
990000000                -0.9619903920540067      -0.13299663165803743
1020000000               -0.9695394952698524      -0.045486620482127205
1050000000               -0.9690936522386912      0.04228141532136591
1080000000               -0.9606701515332718      0.12957461922004562
1110000000               -0.9443540670923588      0.2156657098158258
1140000000               -0.9202973232171794      0.2998393732325319
1170000000               -0.8887171346006867      0.3813985180544748
1200000000               -0.8498938420858452      0.4596703257334227
1230000000               -0.8041681718706475      0.5340120373746616
1260000000               -0.7519379529097798      0.6038164180381456
1290000000               -0.6936543331026651      0.668516846769223
1320000000               -0.6298175401040577      0.7275919856588096
1350000000               -0.5609722367789876      0.7805699875539809
1380000000               -0.48770252553151866     0.8270322078131424
1410000000               -0.41062665702607754     0.8666163937372229
1440000000               -0.33039150147026985     0.89901933082767
1470000000               -0.24766684086644128     0.9239989326216519
1500000000               -0.16313954033421824     0.9413757673335725
1530000000               -0.07750765555019666     0.9510340209352823
1560000000               0.008525467971672107     0.9529219021888619
1590000000               0.09425705079799834      0.9470515007698064
1620000000               0.1789906409381967       0.9334981145777216
1650000000               0.26204173351495064      0.9123990665806613
1680000000               0.34274320560839283      0.8839520354553129
1710000000               0.4204505273776958       0.8484129272942402
1740000000               0.4945467140132264       0.8060933183352162
1770000000               0.5644469873253979       0.7573575004849291
1800000000               0.6296031197805846       0.7026191629312509
1830000000               0.6895074373796263       0.6423377441625444
1860000000               0.7436964618508256       0.5770144889042753
1890000000               0.7917541754897801       0.5071882451667076
1920000000               0.8333148956934026       0.43343103583492165
1950000000               0.8680657486618455       0.35634343941471863
1980000000               0.8957487346676178       0.27654981371711246
2010000000               0.9161623796002026       0.19469339557006105
2040000000               0.9291629695767917       0.11143130914506952
2070000000               0.9346653673589427       0.02742951461125003
2100000000               0.9326434111433646       -0.05664227184767502
2130000000               0.9231298978714861       -0.1401156562698008
2.16E9                   0.9062161548625518       -0.22232861378707286
2.19E9                   0.882051205011112        -0.3026304751616342
2.22E9                   0.850840532354264        -0.3803868247565431
2.25E9                   0.8128444562130419       -0.45498428280631736
2.28E9                   0.7683761232837704       -0.5258351459892662
2.31E9                   0.7177991279117109       -0.5923818617386027
2.34E9                   0.6615247703870978       -0.654101314131561
2.37E9                   0.6000089616506401       -0.7105089000570046
2.4E9                    0.5337487780645992       -0.761162375894577
2.43E9                   0.4632786635104504       -0.8056654507309071
2.46E9                   0.38916626738162885      -0.8436710921582823
2.49E9                   0.31200790407215656      -0.8748844876349717
2.52E9                   0.2324236322618985       -0.8990655702775427
2.55E9                   0.15105199928372973      -0.9160309834353232
2.58E9                   0.06854458046935008      -0.9256553577823212
2.61E9                   -0.014439460991839504    -0.927871848961177
2.64E9                   -0.09723854241075253     -0.9226720433377701
2.67E9                   -0.17919342504523997     -0.9101055038318471
2.7E9                    -0.25965167776480097     -0.8902792548381776
2.73E9                   -0.3379721388821028      -0.8633573254303244
2.76E9                   -0.4135296592530902      -0.8295601989405882
2.79E9                   -0.48572020092517615     -0.7891638609790912
2.82E9                   -0.5539661382431514      -0.7424981860927252
2.85E9                   -0.6177215065865356      -0.6899445692146599
2.88E9                   -0.6764769768647003      -0.6319328563280934
2.91E9                   -0.7297644228907858      -0.5689376950696817
2.94E9                   -0.7771610248450838      -0.5014744256498187
2.97E9                   -0.8182928926166048      -0.4300946047469687
3.0E9                    -0.8528382055123587      -0.35538122793465826
3.03E9                   -0.8805298631255033      -0.27794370031348326
3.06E9                   -0.9011576379965214      -0.19841259871751035
3.09E9                   -0.9145698179007887      -0.11743426890401065
3.12E9                   -0.9206743257165583      -0.035665303900357916
3.15E9                   -0.9194393078213529      0.04623304737190361
3.18E9                   -0.9108931863731535      0.12760048966586182
3.21E9                   -0.8951241765059624      0.20778325583506355
3.24E9                   -0.8722792754906905      0.28613959333353955
3.27E9                   -0.8425627369268064      0.36204511017343877
3.3E9                    -0.8062340488441067      0.43489793025776935
3.33E9                   -0.7636054399551974      0.5041236101395129
3.36E9                   -0.715038943186162       0.5691797729491069
3.39E9                   -0.6609430499821767      0.6295604187548509
3.42E9                   -0.6017689926805431      0.6847998749931601
3.45E9                   -0.5380066956201188      0.7344763549829513
3.48E9                   -0.4701804382045053      0.7782150976239182
3.51E9                   -0.3988442753717646      0.8156910662714427
3.54E9                   -0.32457726255312047     0.8466311900317779
3.57E9                   -0.24797853271659553     0.8708161363856572
3.6E9                    -0.16966227355447608     0.8880816092356515
3.63E9                   -0.0902526521112435      0.898319172054811
3.66E9                   -0.01037873246305292     0.9014766010227682
3.69E9                   0.06933056978917466      0.8975577776273123
3.72E9                   0.1482514561512227       0.8866221343444652
3.75E9                   0.22577009980296836      0.8687836697431872
3.78E9                   0.30128735240800675      0.8442095512088126
3.81E9                   0.37422327233447883      0.8131183243101582
3.84E9                   0.4440214446695935       0.7757777482760204
3.87E9                   0.5101530642440102       0.7325022777258111
3.9E9                    0.5721207522010866       0.683650212642792
3.93E9                   0.6294620762137257       0.6296205420958892
3.96E9                   0.6817527451559902       0.5708495124301493
3.99E9                   0.7286094516847691       0.5078069574110027
4.02E9                   0.7696923424889395       0.44099243457323567
4.05E9                   0.8047071061805359       0.37093121627198
4.08E9                   0.8334066806549072       0.2981701845170055
4.11E9                   0.8555925941740825       0.22327367254222824
4.14E9                   0.8711159621689902       0.14681928511355902
4.17E9                   0.8798781628654407       0.0693937163708423
4.2E9                    0.8818312088129616       -0.008411426740356815
4.23E9                   0.876977821396968        -0.08600379191254498
4.26E9                   0.865371206286973        -0.162794433351037
4.29E9                   0.8471145238793121       -0.23820193457263306
4.32E9                   0.8223600508692986       -0.31165648205917373
4.35E9                   0.7913080344789822       -0.3826038670884961
4.38E9                   0.7542052454435038       -0.4505093952162786
4.41E9                   0.7113432363345571       -0.5148616873660667
4.44E9                   0.6630563084386495       -0.5751763585817571
4.47E9                   0.6097191854757299       -0.6309995589883868
4.5E9                    0.5517443896340843       -0.6819113552893405
4.53E9                   0.4895793171147007       -0.7275289231066621
4.56E9                   0.4237030164828379       -0.7675095137625296
4.59E9                   0.3546226828010827       -0.8015531554039503
4.62E9                   0.28286989061825135      -0.8294050494367604
4.65E9                   0.20899659841772406      -0.8508576277751966
4.68E9                   0.13357096353744852      -0.8657522442273262
4.71E9                   0.05717300981806535      -0.8739804823237627
4.74E9                   -0.019609809903746903    -0.8754850706739481
4.77E9                   -0.09618711809932456     -0.8702604040939161
4.8E9                    -0.17197015015509864     -0.8583526724612419
4.83E9                   -0.2463762967228026      -0.8398595996871765
4.86E9                   -0.31883362485022193     -0.814929792834392
4.89E9                   -0.3887853506654274      -0.7837616984929121
4.92E9                   -0.45569423300765743     -0.74660216213645
4.95E9                   -0.5190468517217764      -0.7037445876488319
4.98E9                   -0.5783577296348326      -0.6555266987635083
5.01E9                   -0.6331732540966377      -0.6023279108314724
5.04E9                   -0.6830753530161682      -0.5445663291669132
5.07E9                   -0.7276848817574957      -0.4826953982136936
5.1E9                    -0.7666646806461004      -0.4172002334662824
5.13E9                   -0.7997222683351719      -0.3485936749632176
5.16E9                   -0.8266121438511281      -0.2774121065206608
5.19E9                   -0.8471376793241947      -0.20421108722966627
5.22E9                   -0.8611525943928418      -0.1295608407423968
5.25E9                   -0.8685620102077849      -0.05404164281033377
5.28E9                   -0.8693230830875021      0.021760858286442194
5.31E9                   -0.8634452158324812      0.09726035849061875
5.34E9                   -0.8509898401439998      0.17187462138670498
5.37E9                   -0.832069760862912       0.2450301721360761
5.4E9                    -0.8068480548996544      0.3161669174962884
5.43E9                   -0.7755365255025399      0.384742639861108
5.46E9                   -0.7383937241007985      0.45023730987166327
5.49E9                   -0.6957225645766738      0.512157163596834
5.52E9                   -0.6478675660999029      0.5700384964153995
5.55E9                   -0.5952117694067199      0.6234511346679752
5.58E9                   -0.5381733767476787      0.6720015578911271
5.61E9                   -0.477202167361689       0.7153356568697089
5.64E9                   -0.4127757367666572      0.7531411256804859
5.67E9                   -0.3453955993662848      0.7851494958485471
5.7E9                    -0.2755831810868123      0.8111378245481996
5.73E9                   -0.203875716121793       0.8309300440361531
5.76E9                   -0.13082205629709592     0.8443979666652001
5.79E9                   -0.056978407459603635    0.8514619257617979
5.82E9                   0.017095976096895348     0.8520910259915797
5.85E9                   0.09084308892496083      0.8463029841158676
5.88E9                   0.16371040179601729      0.834163560639853
5.91E9                   0.23515496045843973      0.8157856061089694
5.94E9                   0.3046473124456          0.7913277625782669
5.97E9                   0.3716752386889754       0.7609928655928506
6.0E9                    0.43574728361934983      0.7250260861065402
