% Model:              three_layers reality at 0.1mm.mph
% Version:            COMSOL 5.6.0.280
% Date:               Mar 9 2022, 10:49
% Table:              表格 1 - 全局计算 1
% freq (Hz)              real(emw.S11) (1)        imag(emw.S11) (1)
300000000                0.5510196139512221       -0.7351630125280167
330000000                0.48183823051319163      -0.7808443252216439
360000000                0.4089999771031977       -0.8201454913587924
390000000                0.33307136847494834      -0.8527675258385744
420000000                0.2546475029720018       -0.8784623374733693
450000000                0.17434655363442175      -0.8970353233984837
480000000                0.09280431516018749      -0.9083474636536417
510000000                0.010668740089833408     -0.912316917096145
540000000                -0.07140555622663439     -0.9089201148428393
570000000                -0.15276281901314662     -0.8981923457910131
600000000                -0.2327516837861671      -0.8802278288060356
630000000                -0.3107306831649993      -0.8551792676840911
660000000                -0.3860736915894169      -0.8232568882248223
690000000                -0.4581752669321241      -0.7847269599110073
720000000                -0.5264558428509408      -0.7399098094873361
750000000                -0.5903667250834775      -0.6891773384247069
780000000                -0.649394844308593       -0.6329500613497174
810000000                -0.703067218224823       -0.5716936881123741
840000000                -0.7509550773634456      -0.5059152773791462
870000000                -0.7926776111898634      -0.4361589950061415
900000000                -0.8279052941697957      -0.3630015157687372
930000000                -0.8563627555432037      -0.28704711155663615
960000000                -0.8778311611868793      -0.20892247315001572
990000000                -0.8921500808891253      -0.1292713173482782
1020000000               -0.8992188205890255      -0.04874883301303574
1050000000               -0.8989972050054826      0.03198397741285985
1080000000               -0.8915058026371473      0.1122660028187082
1110000000               -0.8768255918632222      0.19144171671590457
1140000000               -0.8550970734928134      0.26886680039642913
1170000000               -0.8265188416666194      0.34391363937717534
1200000000               -0.7913456315042248      0.41597663771993204
1230000000               -0.7498858677452639      0.4844772983801666
1260000000               -0.70249874438738        0.5488690206103358
1290000000               -0.6495908700526937      0.6086415701896914
1320000000               -0.5916125184292383      0.6633251824455384
1350000000               -0.5290535267018318      0.7124942634330411
1380000000               -0.4624388876886212      0.7557706601294006
1410000000               -0.39232408378204175     0.7928264760078435
1440000000               -0.3192902118471823      0.8233864142927863
1470000000               -0.24393894940113228     0.8472296366645566
1500000000               -0.16688741161945586     0.8641911311389974
1530000000               -0.08876294862903666     0.874162587896633
1560000000               -0.010197930713473725    0.877092787101744
1590000000               0.06817543244195381      0.8729875073557614
1620000000               0.1457301948744428       0.8619089677640572
1650000000               0.22184965911440457      0.8439748203402312
1680000000               0.2959322043319107       0.8193567128178763
1710000000               0.36739592321812486      0.7882784447843452
1740000000               0.43568303623683385      0.7510137423015827
1770000000               0.5002640548541962       0.7078836781747677
1800000000               0.5606416692325972       0.6592537662496466
1830000000               0.6163543385061048       0.6055307594117867
1860000000               0.6669795654859322       0.5471591812923488
1890000000               0.7121368401949884       0.4846176222418841
1920000000               0.7514902394995304       0.4184148302490285
1950000000               0.7847506729206529       0.3490856270440933
1980000000               0.8116777667755504       0.2771866797271962
2010000000               0.8320813812413          0.20329215749132934
2040000000               0.8458227567860803       0.1279893028539525
2070000000               0.8528152884093892       0.05187394587272548
2100000000               0.8530249277335923       -0.024454010290307207
2130000000               0.8464702147050467       -0.10039510506609027
2.16E9                   0.833221942200331        -0.17535481034972467
2.19E9                   0.8134024583480518       -0.24874796834374868
2.22E9                   0.7871846129006315       -0.32000315165273346
2.25E9                   0.7547903553018855       -0.38856692128316744
2.28E9                   0.7164889935075511       -0.4539079587106929
2.31E9                   0.6725951231528658       -0.5155210505831683
2.34E9                   0.6234662369478969       -0.5729309056034245
2.37E9                   0.5695000225666774       -0.6256957854930739
2.4E9                    0.5111313539551551       -0.6734109323616126
2.43E9                   0.4488289751866152       -0.7157117727123028
2.46E9                   0.38309186907569814      -0.7522768700062381
2.49E9                   0.3144452992297403       -0.782830579919682
2.52E9                   0.2434365236527606       -0.8071453346973887
2.55E9                   0.17063021309081458      -0.8250434545721007
2.58E9                   0.09660367363237406      -0.8363983795994999
2.61E9                   0.02194205027919338      -0.841135267600137
2.64E9                   -0.052766280694384986    -0.8392310235125099
2.67E9                   -0.12693399903026067     -0.8307139597024138
2.7E9                    -0.1999788513220299      -0.8156633301805857
2.73E9                   -0.2713275933347338      -0.7942088695719219
2.76E9                   -0.3404200948623018      -0.7665302647339156
2.79E9                   -0.40671370536079243     -0.7328563419961516
2.82E9                   -0.4696878014355629      -0.6934637542291222
2.85E9                   -0.5288483336341754      -0.6486750604734112
2.88E9                   -0.583732189513939       -0.5988562095920827
2.91E9                   -0.6339112463391079      -0.5444135078758433
2.94E9                   -0.6789960477037189      -0.48579016509151657
2.97E9                   -0.718639077241845       -0.4234624997124529
3.0E9                    -0.7525376192665986      -0.35793586465269567
3.03E9                   -0.7804361997198144      -0.28974034051839004
3.06E9                   -0.8021285992388532      -0.21942623648756593
3.09E9                   -0.8174594284995053      -0.1475594373059214
3.12E9                   -0.8263252561031309      -0.07471663577402973
3.15E9                   -0.8286752810902916      -0.001480492290285941
3.18E9                   -0.8245115455756592      0.07156523525262977
3.21E9                   -0.8138886872805027      0.14384054672205418
3.24E9                   -0.7969132365194487      0.21477399523374238
3.27E9                   -0.7737424670660462      0.2838073787718963
3.3E9                    -0.7445828151204685      0.3504002847374388
3.33E9                   -0.7096878850193686      0.4140344466237239
3.36E9                   -0.6693560645196741      0.4742178741219319
3.39E9                   -0.6239277761514866      0.5304887211144559
3.42E9                   -0.5737823945457813      0.5824188590707016
3.45E9                   -0.5193348625432387      0.6296171270176286
3.48E9                   -0.46103204138637166     0.6717322330730093
3.51E9                   -0.3993488324674136      0.7084552864947116
3.54E9                   -0.33478410960974947     0.7395219435846344
3.57E9                   -0.2678565020501865      0.7647141551324583
3.6E9                    -0.19910006880269826     0.7838615076901619
3.63E9                   -0.12905990488501812     0.7968421556166603
3.66E9                   -0.05828771916512263     0.8035833452823395
3.69E9                   0.012662578100702504     0.8040615370870361
3.72E9                   0.08323924221374385      0.7983021345400619
3.75E9                   0.15289698232720816      0.7863788324381592
3.78E9                   0.2211011406490142       0.7684125980018609
3.81E9                   0.28733173434477666      0.7445702998379291
3.84E9                   0.35108733341401877      0.7150630001413072
3.87E9                   0.4118887481435472       0.6801439262906239
3.9E9                    0.4692824995260221       0.6401061395010207
3.93E9                   0.5228440454722721       0.5952799210827538
3.96E9                   0.5721807358981753       0.5460299012424524
3.99E9                   0.6169344717344103       0.4927519609996555
4.02E9                   0.6567840475878199       0.43586994362289516
4.05E9                   0.6914471654655259       0.37583221642410275
4.08E9                   0.7206821168198694       0.31310812497788687
4.11E9                   0.7442891403587908       0.2481843783531876
4.14E9                   0.7621114704977462       0.18156139612517597
4.17E9                   0.7740360937317196       0.11374963779046417
4.2E9                    0.7799942269539827       0.04526592620076056
4.23E9                   0.7799615247335023       -0.023370227865073662
4.26E9                   0.7739580155952042       -0.09164029166092337
4.29E9                   0.7620477639514018       -0.1590303537623584
4.32E9                   0.7443382557211606       -0.2250347261074524
4.35E9                   0.7209795102366983       -0.2891594840424202
4.38E9                   0.6921629254092324       -0.35092592539988154
4.41E9                   0.6581198644408446       -0.40987393379895765
4.44E9                   0.6191199899381911       -0.4655652347281408
4.47E9                   0.5754693468156926       -0.5175865329877821
4.5E9                    0.5275081915655159       -0.5655525163578173
4.53E9                   0.4756085650684678       -0.6091087036967584
4.56E9                   0.42017160958271804      -0.647934109289198
4.59E9                   0.3616246374877287       -0.6817436907525165
4.62E9                   0.3004179680522334       -0.7102905467226901
4.65E9                   0.23702155691601912      -0.733367833185405
4.68E9                   0.1719214499297717       -0.7508103728086155
4.71E9                   0.10561609712970554      -0.7624959391849802
4.74E9                   0.03861256353523608      -0.7683462059419519
4.77E9                   -0.028577328587876497    -0.7683273576243791
4.8E9                    -0.09544089574721398     -0.7624503638359603
4.83E9                   -0.16146850182748357     -0.750770919414915
4.86E9                   -0.22615745678941127     -0.7333890520504214
4.89E9                   -0.2890158833094226      -0.7104483961313781
4.92E9                   -0.34956652683161293     -0.6821351297483554
4.95E9                   -0.4073504803217599      -0.6486765720691552
4.98E9                   -0.4619307907856481      -0.6103394411706713
5.01E9                   -0.5128959113961659      -0.5674277774013995
5.04E9                   -0.5598629617160998      -0.5202805435280009
5.07E9                   -0.6024807588920029      -0.4692689195671875
5.1E9                    -0.6404325849590633      -0.4147933167817772
5.13E9                   -0.6734386593948278      -0.3572801414455066
5.16E9                   -0.701258292030828       -0.2971783439238804
5.19E9                   -0.7236916988700575      -0.234955791427486
5.22E9                   -0.7405814712433947      -0.17109550246864785
5.25E9                   -0.7518136949866276      -0.10609177754163249
5.28E9                   -0.7573187190988974      -0.04044625518031948
5.31E9                   -0.7570715719586757      0.02533608165912829
5.34E9                   -0.7510920193811382      0.09075092467042811
5.37E9                   -0.7394442556672747      0.155298656545027
5.4E9                    -0.7222362193476681      0.21848832955992706
5.43E9                   -0.6996185305811058      0.2798415645287256
5.46E9                   -0.6717830560580698      0.3388963241870535
5.49E9                   -0.6389611175440297      0.39521051509457106
5.52E9                   -0.6014213698960565      0.4483653757414963
5.55E9                   -0.559467382242031       0.4979686152727285
5.58E9                   -0.5134349615413653      0.5436572757145535
5.61E9                   -0.4636892602047227      0.5851003007610459
5.64E9                   -0.41062170817690735     0.6220008045995482
5.67E9                   -0.35464680402327997     0.6540980433922968
5.7E9                    -0.296198789909117       0.6811690967635691
5.73E9                   -0.23572822489480655     0.7030302645297711
5.76E9                   -0.1736984646621771      0.7195381749645211
5.79E9                   -0.11058205852850733     0.7305905890969958
5.82E9                   -0.04685708642248603     0.7361268783690581
5.85E9                   0.016996525570564105     0.7361281561210353
5.88E9                   0.08050066129416429      0.730617057282137
5.91E9                   0.1431825915505753       0.7196571791993678
5.94E9                   0.20457843136752665      0.7033522117914791
5.97E9                   0.2642364518926254       0.6818447917617869
6.0E9                    0.321720235376           0.655315113398981
