% Model:              cali 1.68 0.57mm.mph
% Version:            COMSOL 5.6.0.280
% Date:               Feb 18 2022, 16:38
% Table:              表格 1 - 全局计算 1
% freq (Hz)              real(emw.S11) (1)        imag(emw.S11) (1)
300000000                0.6190879309405983       -0.7657441329657881
330000000                0.5483188128301247       -0.8173417565487997
360000000                0.47327618479149436      -0.8623600803565872
390000000                0.39457565510408676      -0.9004447608537127
420000000                0.31286241764791695      -0.9312994050365051
450000000                0.2288057735867625       -0.9546881009484105
480000000                0.14309342164066516      -0.9704374302510925
510000000                0.05642556622074988      -0.9784379383363897
540000000                -0.030491105468340864    -0.9786450423776977
570000000                -0.1169495222904054      -0.9710793623330987
600000000                -0.20224834731265703     -0.9558264655976644
630000000                -0.2856980567544531      -0.933036021802635
660000000                -0.3666269199481502      -0.9029203705530908
690000000                -0.44438682064064977     -0.8657525113801668
720000000                -0.5183588600431637      -0.8218635319800067
750000000                -0.5879586840402198      -0.7716394973156069
780000000                -0.6526414784345461      -0.7155178291371285
810000000                -0.7119065799138387      -0.6539832116699853
840000000                -0.7653016541108619      -0.5875630654319196
870000000                -0.8124263970614831      -0.5168226366942786
900000000                -0.8529357218241188      -0.4423597552560529
930000000                -0.8865423984678398      -0.36479931729426485
960000000                -0.9130191223258456      -0.2847875535871614
990000000                -0.9321999926588953      -0.2029861460175909
1020000000               -0.9439813915021903      -0.12006625661704594
1050000000               -0.9483222600485223      -0.03670253415784922
1080000000               -0.9452437776699791      0.04643283711646008
1110000000               -0.934828456241624       0.12867598407940206
1140000000               -0.9172186695564051      0.20937702568019964
1170000000               -0.8926146444820511      0.2879055316569214
1200000000               -0.8612719466851257      0.3636557059746002
1230000000               -0.823498499232808       0.4360512474945048
1260000000               -0.7796511770924388      0.5045498458391113
1290000000               -0.7301320241903287      0.5686472770047588
1320000000               -0.6753841422654464      0.6278810699321956
1350000000               -0.6158873020244023      0.6818337222228912
1380000000               -0.5521533265397802      0.7301354502523639
1410000000               -0.48472129474585196     0.7724664647094257
1440000000               -0.41415260920883645     0.8085587665589853
1470000000               -0.3410259680119982      0.8381974591191566
1500000000               -0.2659322793222074      0.861221567917262
1530000000               -0.1894695621910364      0.8775243538259171
1560000000               -0.11223789351453313     0.8870531023599212
1590000000               -0.03483448454732301     0.8898083850836402
1620000000               0.04215101364260026      0.8858428255683015
1650000000               0.11814089146368315      0.8752594532075858
1680000000               0.19257341938467132      0.8582097614061208
1710000000               0.2649065832324407       0.8348915700609312
1740000000               0.33462159107547973      0.8055467299578019
1770000000               0.4012262052300546       0.7704586427292146
1800000000               0.4642578974653798       0.7299495474832236
1830000000               0.5232867806289659       0.6843775475456388
1860000000               0.5779182578711733       0.6341333901873847
1890000000               0.6277953452798712       0.5796370413813975
1920000000               0.6726006467306989       0.5213341077561913
1950000000               0.7120579777864077       0.4596921546859397
1980000000               0.7459336456878791       0.39519696095706075
2010000000               0.7740373963704003       0.32834874225824334
2040000000               0.7962230399589476       0.25965836995206576
2070000000               0.8123887658103954       0.189643607732775
2100000000               0.8224771574957096       0.11882538659894122
2130000000               0.8264749178756259       0.04772413708046763
2.16E9                   0.824412314377635        -0.02314380333828929
2.19E9                   0.8163623547939146       -0.09326969050985948
2.22E9                   0.8024397042342035       -0.162155765297373
2.25E9                   0.7827993542515629       -0.22931852102857106
2.28E9                   0.7576350555997998       -0.29429183166928663
2.31E9                   0.7271775265687233       -0.35662992639275254
2.34E9                   0.6916924494384773       -0.4159101966059677
2.37E9                   0.6514782682065601       -0.47173582224535937
2.4E9                    0.6068638015201597       -0.5237382045997151
2.43E9                   0.5582056854764849       -0.5715791937343399
2.46E9                   0.5058856617207033       -0.6149530993776555
2.49E9                   0.4503077271801978       -0.6535884748559806
2.52E9                   0.39189516232361704      -0.6872496648778883
2.55E9                   0.3310874556155323       -0.7157381088130887
2.58E9                   0.2683371424834725       -0.7388933922228083
2.61E9                   0.20410657764283863      -0.7565940405196999
2.64E9                   0.13886466024762534      -0.7687580497471356
2.67E9                   0.07308353196619066      -0.775343150641329
2.7E9                    0.007235268663605687     -0.776346803477647
2.73E9                   -0.05821141299130553     -0.7718059226230588
2.76E9                   -0.1227944121931433      -0.7617963313862692
2.79E9                   -0.18606144164016225     -0.7464319495507009
2.82E9                   -0.24757314377924067     -0.7258637179848935
2.85E9                   -0.30690610312700595     -0.700278266848399
2.88E9                   -0.36365573267554724     -0.6698963360718384
2.91E9                   -0.4174390127632592      -0.6349709590201091
2.94E9                   -0.46789706191444264     -0.5957854223241434
2.97E9                   -0.5146975200528523      -0.5526510169652469
3.0E9                    -0.55753672606617        -0.505904597540602
3.03E9                   -0.5961416730987014      -0.4559059684535714
3.06E9                   -0.6302717267761981      -0.4030351173585547
3.09E9                   -0.6597200934653511      -0.34768931762961797
3.12E9                   -0.6843150276728145      -0.290280122999875
3.15E9                   -0.7039207700669112      -0.23123027845928432
3.18E9                   -0.7184382098713971      -0.1709705725295022
3.21E9                   -0.7278052680343325      -0.10993665647970025
3.24E9                   -0.731997000147369       -0.048565856364202874
3.27E9                   -0.7310254207602519      0.012705996307013077
3.3E9                    -0.7249390533617149      0.07344768986728038
3.33E9                   -0.7138222128050722      0.13323568913111114
3.36E9                   -0.6977940293265676      0.19165709969804912
3.39E9                   -0.6770072254923479      0.24831251751898709
3.42E9                   -0.6516466594006689      0.3028187427758532
3.45E9                   -0.6219276492584918      0.3548113386804137
3.48E9                   -0.5880940960971508      0.40394701753052714
3.51E9                   -0.5504164227590277      0.44990583826826874
3.54E9                   -0.5091893485912228      0.4923932016611987
3.57E9                   -0.46472952025462694     0.5311416313848242
3.6E9                    -0.4173730198980374      0.5659123314162374
3.63E9                   -0.367472772473127       0.5964965124104449
3.66E9                   -0.3153958742231314      0.6227164820356403
3.69E9                   -0.26152086436945904     0.6444264964635112
3.72E9                   -0.20623496171458805     0.661513372428793
3.75E9                   -0.149931287295224       0.6738968613123625
3.78E9                   -0.09300609347392044     0.6815297885798852
3.81E9                   -0.03585601896238693     0.6843979635988325
3.84E9                   0.021124611827823617     0.682519866374995
3.87E9                   0.07754642772180952      0.675946119065375
3.9E9                    0.1330275718218763       0.6647587513089361
3.93E9                   0.18719616961145427      0.6490702694532822
3.96E9                   0.23969269031111562      0.6290225406689188
3.99E9                   0.29017218889414914      0.6047855037412312
4.02E9                   0.33830641742907447      0.5765557189871157
4.05E9                   0.38378579570663107      0.5445547703122315
4.08E9                   0.4263212324001739       0.5090275328105663
4.11E9                   0.46564578927573097      0.4702403195955676
4.14E9                   0.501516182232403        0.4284789216794007
4.17E9                   0.5337141141176416       0.38404655472311744
4.2E9                    0.5620474353952105       0.33726172634583085
4.23E9                   0.5863511296952          0.2884560375227276
4.26E9                   0.6064881221896731       0.23797193136547568
4.29E9                   0.6223499095174344       0.18616040231205266
4.32E9                   0.6338570107011834       0.13337867858868477
4.35E9                   0.6409592391894603       0.07998789054349972
4.38E9                   0.6436357967956493       0.026350737302932543
4.41E9                   0.6418951909760051       -0.027170835932682515
4.44E9                   0.6357749775428445       -0.08021793791848003
4.47E9                   0.6253413315645098       -0.13243699676018797
4.5E9                    0.6106884498663363       -0.18348197899713659
4.53E9                   0.591937789210828        -0.23301655093533302
4.56E9                   0.5692371448774788       -0.28071617100729773
4.59E9                   0.5427595750009296       -0.3262701023039381
4.62E9                   0.5127021766516375       -0.36938333468226703
4.65E9                   0.47928472022470814      -0.40977840620404415
4.68E9                   0.4427481493232275       -0.4471971139807456
4.71E9                   0.40335295389017994      -0.4814021048271025
4.74E9                   0.3613774250129456       -0.5121783364258751
4.77E9                   0.3171158004841429       -0.5393344000944453
4.8E9                    0.27087631096918535      -0.5627036966114882
4.83E9                   0.2229791374071045       -0.5821454570882294
4.86E9                   0.17375429108256402      -0.5975456014787067
4.89E9                   0.12353942857221796      -0.6088174280655315
4.92E9                   0.07267761454533642      -0.6159021281131472
4.95E9                   0.021515046039547236     -0.6187691208388342
4.98E9                   -0.029601247589604897    -0.6174162049261828
5.01E9                   -0.08032571429725853     -0.6118695239190348
5.04E9                   -0.13031658348555625     -0.6021833440581545
5.07E9                   -0.17923814921254647     -0.5884396443740062
5.1E9                    -0.22676301695285117     -0.5707475201715397
5.13E9                   -0.2725742982620645      -0.5492424023544565
5.16E9                   -0.3163677378090102      -0.5240850964033211
5.19E9                   -0.3578537573725733      -0.4954606461737405
5.22E9                   -0.3967594016658062      -0.4635770290772496
5.25E9                   -0.4328301712308304      -0.42866369065619364
5.28E9                   -0.4658317282318303      -0.39096992798006175
5.31E9                   -0.495551461651034       -0.3507631328365038
5.34E9                   -0.5217998994375977      -0.3083269070070686
5.37E9                   -0.5444119562575576      -0.2639590632889978
5.4E9                    -0.5632480068476853      -0.21796952704625705
5.43E9                   -0.5781947764451641      -0.17067815405171127
5.46E9                   -0.589166041304895       -0.12241248118611259
5.49E9                   -0.5961031339473518      -0.07350542719245538
5.52E9                   -0.5989752494686116      -0.024292961102929424
5.55E9                   -0.5977795509250238      0.024888243727618286
5.58E9                   -0.592541073560921       0.07370315203345275
5.61E9                   -0.5833124293117813      0.12182068759937521
5.64E9                   -0.5701733146892819      0.16891601513201968
5.67E9                   -0.5532298267731461      0.21467276582694136
5.7E9                    -0.532613593605823       0.25878518992397354
5.73E9                   -0.5084807268431433      0.3009602202287161
5.76E9                   -0.48101060603096335     0.34091943141737996
5.79E9                   -0.4504045053201142      0.3784008809974211
5.82E9                   -0.4168840747107959      0.4131608190445608
5.85E9                   -0.3806896890272274      0.44497525523665077
5.88E9                   -0.3420786787021564      0.4736413731810869
5.91E9                   -0.3013234571095234      0.49897878357737063
5.94E9                   -0.258709559669959       0.5208306092748389
5.97E9                   -0.2145336102799462      0.5390643967970296
6.0E9                    -0.16910123077272596     0.5535728504056217
