% Model:              three_layers reality at 0.1mm.mph
% Version:            COMSOL 5.6.0.280
% Date:               Mar 10 2022, 14:53
% Table:              表格 1 - 全局计算 1
% freq (Hz)              real(emw.S11) (1)        imag(emw.S11) (1)
300000000                0.4738178907516639       -0.7764953002889345
330000000                0.39406863615925247      -0.8165414799507617
360000000                0.3112321776327509       -0.8486044024457009
390000000                0.22606030090787535      -0.8724586002909174
420000000                0.13932853067348266      -0.8879464926699241
450000000                0.05182810944173184      -0.8949821970485417
480000000                -0.035642119420498906    -0.8935539404612394
510000000                -0.12228382419273594     -0.8837252542373962
540000000                -0.20730720729380725     -0.865635083133272
570000000                -0.28993885935484726     -0.8394969077915472
600000000                -0.3694293708239245      -0.8055969605868377
630000000                -0.4450606316543135      -0.7642916044488518
660000000                -0.5161527524792312      -0.7160039394696173
690000000                -0.5820705450526283      -0.6612197002864588
720000000                -0.64222950379009        -0.6004825079562339
750000000                -0.6961012354443492      -0.5343885416970505
780000000                -0.7432182896942164      -0.46358069780366873
810000000                -0.7831783491569067      -0.38874230606411053
840000000                -0.8156477444885882      -0.310590475415193
870000000                -0.8403642667277599      -0.22986914330745273
900000000                -0.857139256716303       -0.14734190383426252
930000000                -0.8658589586257531      -0.06378469135053708
960000000                -0.8664851325340367      0.020021605021453864
990000000                -0.8590549281144275      0.1032985193614731
1020000000               -0.843680029373079       0.18527730573304393
1050000000               -0.8205450873798843      0.2652060814781093
1080000000               -0.7899054650614539      0.34235674719443016
1110000000               -0.752084324612575       0.41603161783072234
1140000000               -0.7074690944011622      0.4855697026051027
1170000000               -0.6565073577940579      0.55035257651245
1200000000               -0.5997022115345362      0.6098097911515055
1230000000               -0.5376071457260173      0.6634237782830654
1260000000               -0.47082050145012366     0.7107342052459611
1290000000               -0.3999795650881757      0.7513417478362707
1320000000               -0.32575436115618983     0.7849112523920925
1350000000               -0.2488412068963334      0.8111742656975262
1380000000               -0.16995609350705987     0.829930917565849
1410000000               -0.08982795873396193     0.8410511479073565
1440000000               -0.009191915913720728    0.8444752763028452
1470000000               0.07121749690061048      0.8402139186833077
1500000000               0.15067298497591397      0.8283472616983101
1530000000               0.22846102199529206      0.809023711347892
1560000000               0.3038881742188897       0.7824579379469349
1590000000               0.37628716895592107      0.7489283447687355
1620000000               0.44502265625372317      0.7087739924915065
1650000000               0.5094966163619329       0.6623910160237803
1680000000               0.5691533699943028       0.6102285742707442
1710000000               0.6234841530056944       0.5527843768680857
1740000000               0.6720312218638868       0.490599835107971
1770000000               0.7143914617400484       0.424254886660729
1800000000               0.7502194742105996       0.3543625460344457
1830000000               0.7792301276395425       0.281563233962385
1860000000               0.8012005591420532       0.20651894015278557
1890000000               0.8159716237696184       0.12990727372837105
1920000000               0.8234487933636733       0.05241545529066193
1950000000               0.8236025152361646       -0.025265697917667748
1980000000               0.8164680488037622       -0.10244774594330577
2010000000               0.8021448067650138       -0.17845051868810413
2040000000               0.7807952351632281       -0.25260789798305083
2070000000               0.7526432717888796       -0.3242734783125996
2100000000               0.717972420257328        -0.3928261217385376
2130000000               0.6771234592789576       -0.45767545851013197
2.16E9                   0.6304917593210324       -0.5182674242987847
2.19E9                   0.578524084236033        -0.5740899499825908
2.22E9                   0.5217146020388883       -0.6246788861265982
2.25E9                   0.46059964124090647      -0.6696240755089924
2.28E9                   0.39575061966425606      -0.7085750996940707
2.31E9                   0.32776478281656696      -0.7412456319346801
2.34E9                   0.2572542007414203       -0.7674148217324942
2.37E9                   0.1848348482092142       -0.7869243741629759
2.4E9                    0.11111870912654354      -0.799671565080429
2.43E9                   0.036711306100469625     -0.8056008852622045
2.46E9                   -0.037785629746897524    -0.8046984137374779
2.49E9                   -0.11176972570323454     -0.7969916561225581
2.52E9                   -0.18463598672085607     -0.7825542241336422
2.55E9                   -0.25577947667126094     -0.7615121645401104
2.58E9                   -0.3246020475875033      -0.7340486954421437
2.61E9                   -0.3905209900827421      -0.7004057958314767
2.64E9                   -0.45297761966660427     -0.6608827882932629
2.67E9                   -0.5114447134491152      -0.6158328529748553
2.7E9                    -0.5654325238310837      -0.5656584285740371
2.73E9                   -0.6144935253850089      -0.510806147924519
2.76E9                   -0.6582261706065342      -0.4517616420976282
2.79E9                   -0.6962778954739911      -0.38904434075810057
2.82E9                   -0.7283475381061901      -0.32320229354355634
2.85E9                   -0.7541872637441467      -0.25480700037458764
2.88E9                   -0.7736040408049742      -0.18444823484604864
2.91E9                   -0.7864606841444148      -0.11272885408214717
2.94E9                   -0.7926764671108586      -0.04025960075383714
2.97E9                   -0.7922272984733837      0.03234608608456526
3.0E9                    -0.7851454599388362      0.10447722586168239
3.03E9                   -0.771518902696368       0.17553038555303885
3.06E9                   -0.7514901057317381      0.24491466739324858
3.09E9                   -0.7252545038186622      0.31205655796174375
3.12E9                   -0.6930584984503405      0.3764046013038336
3.15E9                   -0.6551970700392385      0.4374338605505914
3.18E9                   -0.6120110138027676      0.4946501357673725
3.21E9                   -0.5638838243501583      0.5475939100509268
3.24E9                   -0.5112382545422415      0.595844000540985
3.27E9                   -0.45453257271755904     0.6390208947125636
3.3E9                    -0.39425653920541415     0.676789754274001
3.33E9                   -0.33092711925343077     0.7088630679562482
3.36E9                   -0.2650839467256246      0.7350029301187204
3.39E9                   -0.19728455277598655     0.7550229148047948
3.42E9                   -0.12809937822426215     0.7687895055922791
3.45E9                   -0.058106598678360835    0.776223032614165
3.48E9                   0.012113191794372825     0.7772980622705263
3.51E9                   0.08198237031877423      0.7720431859967852
3.54E9                   0.1509316554323119       0.7605401653529418
3.57E9                   0.21840534266493228      0.7429224135071137
3.6E9                    0.2838662769122573       0.7193728268321722
3.63E9                   0.34680043347558187      0.6901210200655362
3.66E9                   0.4067209962947276       0.6554400566432491
3.69E9                   0.46317185147460266      0.6156427950379019
3.72E9                   0.515730449986331        0.5710779887738722
3.75E9                   0.564010029732846        0.5221262840019419
3.78E9                   0.6076612226281157       0.4691962588171996
3.81E9                   0.646373111598393        0.4127206439241389
3.84E9                   0.6798738493620636       0.35315284855800444
3.87E9                   0.7079310014882794       0.290963876505753
3.9E9                    0.7303518138117806       0.22663964661236574
3.93E9                   0.7469836052325637       0.16067863698107002
3.96E9                   0.7577144348307648       0.0935896767624966
3.99E9                   0.7624740902738882       0.025889648489250364
4.02E9                   0.7612353193399607       -0.04189913622759367
4.05E9                   0.7540151169802422       -0.10925205916689568
4.08E9                   0.740875820560206        -0.17564587651006824
4.11E9                   0.721925770451016        -0.24056289725957436
4.14E9                   0.6973193538339175       -0.3034955007234367
4.17E9                   0.6672563424308255       -0.363950784021562
4.2E9                    0.6319805309441823       -0.42145513105890053
4.23E9                   0.5917777581506565       -0.47555853609942605
4.26E9                   0.5469734326534156       -0.5258385793696014
4.29E9                   0.4979296881323393       -0.5719040176381751
4.32E9                   0.4450422663868201       -0.6133980020491872
4.35E9                   0.3887371858158686       -0.6500009584542815
4.38E9                   0.32946721423809894      -0.6814331623394853
4.41E9                   0.26770814069629995      -0.7074570190003926
4.44E9                   0.2039548356141122       -0.7278790322613105
4.47E9                   0.13871710034285734      -0.7425514222954024
4.5E9                    0.07251532854307552      -0.7513733418201939
4.53E9                   0.0058760261746559905    -0.7542916414362744
4.56E9                   -0.06067274221140071     -0.7513011478687421
4.59E9                   -0.12660589934729122     -0.742444440437037
4.62E9                   -0.19140580812065677     -0.7278111378178765
4.65E9                   -0.2545665549286958      -0.7075367345510993
4.68E9                   -0.31559800873733174     -0.6818010484125553
4.71E9                   -0.37402963206591827     -0.6508263483566886
4.74E9                   -0.42941405241442965     -0.6148752228858507
4.77E9                   -0.4813304239778747      -0.5742482212548302
4.8E9                    -0.5293876099170656      -0.5292812639957225
4.83E9                   -0.5732271925242886      -0.4803427895429071
4.86E9                   -0.612526280208562       -0.4278305939468366
4.89E9                   -0.6470000411242426      -0.3721683366876901
4.92E9                   -0.6764038686376398      -0.3138017229486621
4.95E9                   -0.7005350825221559      -0.2531944198277842
4.98E9                   -0.7192340929355701      -0.1908238074236691
5.01E9                   -0.7323849967589857      -0.12717669452560104
5.04E9                   -0.7399156292792979      -0.06274513542835362
5.07E9                   -0.741797147860048       0.001977534650644024
5.1E9                    -0.7380432654854163      0.06650037259608886
5.13E9                   -0.7287092672132718      0.13033819911962477
5.16E9                   -0.7138909211615148      0.1930147254015833
5.19E9                   -0.6937233378639095      0.25406553635315804
5.22E9                   -0.668379754641439       0.3130410350484651
5.25E9                   -0.6380701566450675      0.36950940548979033
5.28E9                   -0.6030396259437945      0.42305957038015357
5.31E9                   -0.5635663481873334      0.47330404450018
5.34E9                   -0.5199592862986113      0.5198815516222131
5.37E9                   -0.4725556128725741      0.5624593004571258
5.4E9                    -0.42171803764217836     0.6007348885194936
5.43E9                   -0.3678321552790341      0.63443788584136
5.46E9                   -0.31130388157051103     0.6633312073724323
5.49E9                   -0.2525569700552217      0.6872123948078602
5.52E9                   -0.19203053527251815     0.70591489763932
5.55E9                   -0.13017647119072073     0.7193093851732923
5.58E9                   -0.06745664977267829     0.7273050549419521
5.61E9                   -0.004339812013371258    0.729850843668329
5.64E9                   0.05870188439937039      0.726936405679631
5.67E9                   0.12119662845217719      0.7185927092103043
5.7E9                    0.1826769252984226       0.704892121587531
5.73E9                   0.24268360933175367      0.6859479131383245
5.76E9                   0.3007697194104848       0.6619131969637002
5.79E9                   0.35650409074245215      0.632979409242747
5.82E9                   0.4094746011055847       0.5993744847033285
5.85E9                   0.4592911041622021       0.5613608696441735
5.88E9                   0.5055881451140689       0.5192334479873731
5.91E9                   0.5480275580148354       0.4733173712041689
5.94E9                   0.5863009975301611       0.4239657219244933
5.97E9                   0.6201323914430358       0.3715569248996988
6.0E9                    0.6492802447859728       0.3164918426088845
