% Model:              three_layers reality at 0.1mm.mph
% Version:            COMSOL 5.6.0.280
% Date:               Feb 23 2022, 17:11
% Table:              表格 1 - 全局计算 1
% freq (Hz)              real(emw.S11) (1)        imag(emw.S11) (1)
300000000                0.4041212552524897       -0.7698712535258577
330000000                0.32080219370295054      -0.8054002508488349
360000000                0.23458098160658933      -0.8321423373424323
390000000                0.1463525631953825       -0.849856852388879
420000000                0.05703725195381964      -0.8583973027320857
450000000                -0.032430943015197757    -0.8577132881674618
480000000                -0.12111555228542503     -0.8478512536020175
510000000                -0.20808853322116444     -0.8289540939877178
540000000                -0.29244081477360295     -0.8012596408759827
570000000                -0.37329246163082774     -0.765098064791407
600000000                -0.4498023939911773      -0.7208882351029732
630000000                -0.5211775873953953      -0.669133087622634
660000000                -0.5866816719339024      -0.6104140592623414
690000000                -0.6456428501616888      -0.5453846581507514
720000000                -0.6974610562351723      -0.4747632465874483
750000000                -0.7416142848464062      -0.39932512229137973
780000000                -0.7776640259505161      -0.31989399107553607
810000000                -0.8052597506244711      -0.2373329304926573
840000000                -0.8241424035797261      -0.1525349493069087
870000000                -0.8341468688857232      -0.06641325211721863
900000000                -0.8352033873199558      0.020108679187057405
930000000                -0.8273379156706624      0.10610707341955544
960000000                -0.8106714306808831      0.19066781423477944
990000000                -0.7854181924569552      0.27289622822722964
1020000000               -0.7518829941742161      0.35192660747709614
1050000000               -0.7104574364258647      0.4269313613599076
1080000000               -0.6616152755775695      0.4971296975111386
1110000000               -0.6059069057244755      0.5617957384891196
1140000000               -0.5439530431730327      0.6202659883350936
1170000000               -0.4764376908471455      0.6719460715831854
1200000000               -0.4041004672214831      0.7163166767987507
1230000000               -0.32772839061084635     0.7529386466069862
1260000000               -0.2481472145178108      0.7814571667438803
1290000000               -0.16621241349678986     0.8016050174865343
1320000000               -0.08279992133961099     0.8132048619289085
1350000000               0.0012032752905986044    0.816170556631851
1380000000               0.08490858486750508      0.8105074812701814
1410000000               0.16743519868369036      0.7963118946246173
1440000000               0.24791931881644427      0.7737693348030451
1470000000               0.32552313019872303      0.7431520915119507
1500000000               0.39944342492735746      0.7048157876987752
1530000000               0.4689197922826523       0.6591951166458156
1560000000               0.53324229379101         0.6067987887520028
1590000000               0.5917585494470944       0.5482037495392202
1620000000               0.6438801684708242       0.4840487369864055
1650000000               0.689088465833115        0.415027251936753
1680000000               0.7269394139713867       0.34188002021437086
1710000000               0.7570677877473486       0.2653870289828664
1740000000               0.779190469580853        0.18635922290580567
1770000000               0.7931088907307331       0.10562994782178153
1800000000               0.7987105939519662       0.024046230827847445
1830000000               0.7959699120712393       -0.05754001417033355
1860000000               0.7849477664085716       -0.13828076722954782
1890000000               0.7657905983006036       -0.2173405832342271
1920000000               0.738728456203896        -0.2939050900717834
1950000000               0.7040722697569944       -0.3671892262182895
1980000000               0.6622103503444873       -0.4364451469246897
2010000000               0.6136041644737799       -0.5009697376146174
2040000000               0.5587834302653011       -0.5601116855260412
2070000000               0.4983405861670749       -0.613278076239653
2100000000               0.43292467085463077      -0.6599404992787911
2130000000               0.36323462869601486      -0.6996406625047124
2.16E9                   0.29001201014904066      -0.7319955184512048
2.19E9                   0.21403296981118436      -0.7567018763317142
2.22E9                   0.1360993918620899       -0.7735403786619319
2.25E9                   0.05702894699535826      -0.7823785270209545
2.28E9                   -0.022355981816479978    -0.7831721536463566
2.31E9                   -0.10124013400692267     -0.7759644848946459
2.34E9                   -0.1788268393459708      -0.7608820518644697
2.37E9                   -0.2543472704381329      -0.738127556099939
2.4E9                    -0.32706575234752516     -0.7079713388753738
2.43E9                   -0.39628098345792345     -0.6707443343839141
2.46E9                   -0.4613253859853803      -0.6268348849374902
2.49E9                   -0.5215660055771892      -0.5766893876574298
2.52E9                   -0.576409181179763       -0.5208142589517575
2.55E9                   -0.6253086672769347      -0.459776156965254
2.58E9                   -0.6677751356742028      -0.39419881824800895
2.61E9                   -0.7033849220994501      -0.3247566784519448
2.64E9                   -0.7317868404976139      -0.2521664178534592
2.67E9                   -0.7527068534636293      -0.17717760503759408
2.7E9                    -0.7659508996953692      -0.1005632097445921
2.73E9                   -0.7714062904826737      -0.023110348360091015
2.76E9                   -0.7690420051329045      0.05438862675861257
2.79E9                   -0.7589080936924439      0.13114469120385452
2.82E9                   -0.7411343002698711      0.20638038598417963
2.85E9                   -0.7159279637265659      0.2793377361559663
2.88E9                   -0.683571226061812       0.3492858368123632
2.91E9                   -0.6444175710496807      0.4155280739997972
2.94E9                   -0.5988877178746329      0.47740893541977913
2.97E9                   -0.5474649012991213      0.5343203589420998
3.0E9                    -0.49068957828458415     0.5857075647828139
3.03E9                   -0.4291536095401381      0.6310743184946416
3.06E9                   -0.3634939722680057      0.6699875759745221
3.09E9                   -0.2943860671581588      0.7020814675924648
3.12E9                   -0.2225366878670899      0.7270605860501475
3.15E9                   -0.14867672481107555     0.7447025509268508
3.18E9                   -0.07355367655524869     0.7548598316641388
3.21E9                   0.002075958281525381     0.7574608190534007
3.24E9                   0.07745433791863406      0.7525101424818678
3.27E9                   0.15182991546182534      0.7400882354277485
3.3E9                    0.22446499357233096      0.7203501547405902
3.33E9                   0.29464313283549987      0.6935236602579667
3.36E9                   0.36167635009219856      0.6599065611946411
3.39E9                   0.4249120387874138       0.61986333599617
3.42E9                   0.48373953589571744      0.5738210349063552
3.45E9                   0.5375962499693315       0.5222644814699674
3.48E9                   0.5859732543703328       0.46573080249544035
3.51E9                   0.6284202420638444       0.4048033365781585
3.54E9                   0.6645497373802396       0.34010499862308635
3.57E9                   0.6940404700382964       0.2722912088028573
3.6E9                    0.7166398396275224       0.20204252369319914
3.63E9                   0.7321654336897666       0.13005712835147276
3.66E9                   0.7405056046520155       0.057043355460680116
3.69E9                   0.7416191528999676       -0.01628761021070248
3.72E9                   0.7355341990891674       -0.08922870371296734
3.75E9                   0.7223463564390813       -0.16108351689720302
3.78E9                   0.7022163353852364       -0.2311723200478865
3.81E9                   0.6753671307593735       -0.29883752499990235
3.84E9                   0.6420809519210757       -0.36344859518805256
3.87E9                   0.6026960478296641       -0.42440646912094043
3.9E9                    0.5576035387230155       -0.48114762680018164
3.93E9                   0.507244289845122        -0.5331479716103357
3.96E9                   0.4521057639037713       -0.5799266994182307
3.99E9                   0.39271869730457853      -0.6210502702762909
4.02E9                   0.3296533938326007       -0.6561364969026454
4.05E9                   0.263515438911924        -0.6848586479673445
4.08E9                   0.19494070572079655      -0.7069493698924766
4.11E9                   0.12458962845665944      -0.7222041854447463
4.14E9                   0.05314082546949912      -0.7304843391583088
4.17E9                   -0.018715762719222796    -0.7317188178595146
4.2E9                    -0.09028601474947157     -0.725905457151348
4.23E9                   -0.16087884607005112     -0.7131111270514163
4.26E9                   -0.22981333580629715     -0.6934710523044425
4.29E9                   -0.2964256481986105      -0.6671873546309313
4.32E9                   -0.36007568432629483     -0.6345269051897939
4.35E9                   -0.42015343416206613     -0.5958185547121588
4.38E9                   -0.47608501084367544     -0.5514497800890144
4.41E9                   -0.5273383410782212      -0.5018627630201985
4.44E9                   -0.5734284662578671      -0.4475499072235722
4.47E9                   -0.6139223885284099      -0.38904880727138824
4.5E9                    -0.6484433826233698      -0.3269367008757666
4.53E9                   -0.6766746918720943      -0.2618244612370881
4.56E9                   -0.6983625359573363      -0.19435021125259133
4.59E9                   -0.7133183775489856      -0.1251726619327157
4.62E9                   -0.7214204222691789      -0.054964289591798866
4.65E9                   -0.7226143578112971      0.015595533303421625
4.68E9                   -0.7169133673358675      0.08582735226625095
4.71E9                   -0.7043974718014085      0.1550583144584452
4.74E9                   -0.6852122587077603      0.22262867795639743
4.77E9                   -0.6595670390097346      0.28789812877068044
4.8E9                    -0.627732445822369       0.350251896920339
4.83E9                   -0.5900374610495538      0.40910664988794326
4.86E9                   -0.5468658435104954      0.46391611089101553
4.89E9                   -0.4986519428989906      0.5141763133611027
4.92E9                   -0.4458759169583335      0.5594303765628387
4.95E9                   -0.38905841533442564     0.5992726812941548
4.98E9                   -0.32875484015915984     0.6333523425903181
5.01E9                   -0.26554932871867243     0.6613759155919045
5.04E9                   -0.20004861891934686     0.6831093239363273
5.07E9                   -0.13287594818443402     0.69837905716343
5.1E9                    -0.06466509966285727     0.7070727320082034
5.13E9                   0.003945348546468353     0.7091391377994051
5.16E9                   0.07231758059170926      0.7045878767092001
5.19E9                   0.13981996568193172      0.6934886633222518
5.22E9                   0.2058324172784891       0.6759702789926426
5.25E9                   0.2697517228825767       0.6522191141815857
5.28E9                   0.3309968074089209       0.6224772085608519
5.31E9                   0.389013821679305        0.5870397300137474
5.34E9                   0.4432809136919083       0.5462519069452786
5.37E9                   0.4933125628169684       0.5005055074001846
5.4E9                    0.5386634246662741       0.45023500478491374
5.43E9                   0.5789317139695431       0.3959135641216111
5.46E9                   0.6137622096696806       0.3380489318084523
5.49E9                   0.6428489811138572       0.2771792412369984
5.52E9                   0.6659379073283873       0.21386868399451575
5.55E9                   0.6828290072882877       0.14870296066057723
5.58E9                   0.6933785363220295       0.08228442259988315
5.61E9                   0.6975007479001079       0.015226844556185674
5.64E9                   0.6951691827232651       -0.05185017958345828
5.67E9                   0.6864173373288023       -0.11832715740896925
5.7E9                    0.6713385899371777       -0.18359080422774976
5.73E9                   0.6500853236430786       -0.24704015099176196
5.76E9                   0.6228672745640804       -0.3080924567593333
5.79E9                   0.5899492164641459       -0.3661887684629259
5.82E9                   0.551648137790992        -0.4207990534631678
5.85E9                   0.5083300511467499       -0.4714269199845589
5.88E9                   0.46040650985493276      -0.5176139949485314
5.91E9                   0.4083308288217007       -0.5589440264694292
5.94E9                   0.3525939562833944       -0.595046730105734
5.97E9                   0.2937199369112502       -0.6256013351573063
6.0E9                    0.2322609375791613       -0.6503397390805019
