% Model:              three_layers reality at 0.1mm.mph
% Version:            COMSOL 5.6.0.280
% Date:               Feb 23 2022, 17:27
% Table:              表格 1 - 全局计算 1
% freq (Hz)              real(emw.S11) (1)        imag(emw.S11) (1)
300000000                0.40492656998282844      -0.7699560997640208
330000000                0.3216418895248898       -0.805559517709951
360000000                0.23544715962820142      -0.8323833733906393
390000000                0.14723629409034586      -0.8501861920711195
420000000                0.05792863384980649      -0.8588205170347353
450000000                -0.031542697108517       -0.8582348416268051
480000000                -0.1202420016527114      -0.8484743717532439
510000000                -0.20724187387921855     -0.8296806446322926
540000000                -0.29163372461587683     -0.8020900321717406
570000000                -0.3725379290416954      -0.7660311627033114
600000000                -0.449113532963896       -0.7219213024082459
630000000                -0.5205674424535714      -0.6702617461762298
660000000                -0.5861630159987891      -0.6116322769027708
690000000                -0.6452279787621824      -0.5466847611596239
720000000                -0.697161581503981       -0.4761359581504799
750000000                -0.7414409326481283      -0.400759627062073
780000000                -0.7776264395700481      -0.3213780254641909
810000000                -0.8053663043575483      -0.23885289775978158
840000000                -0.8244000293260874      -0.1540760583807888
870000000                -0.8345608988085552      -0.0679596783801238
900000000                -0.8357774153109125      0.018573613054267763
930000000                -0.8280736801338568      0.1046006989660776
960000000                -0.8115687208186775      0.18920790370346488
990000000                -0.7864747799065803      0.2715007688983139
1020000000               -0.7530945914547552      0.35061356703588403
1050000000               -0.7118176832800533      0.4257184474990056
1080000000               -0.6631157538490835      0.49603411523203483
1110000000               -0.6075371830062066      0.5608339485338129
1140000000               -0.5457007450374326      0.6194534701878265
1170000000               -0.47828860104167714     0.6712970944650637
1200000000               -0.4060386548070878      0.7158440819641653
1230000000               -0.3297363626119702      0.7526536441098712
1260000000               -0.25020609233230945     0.7813691496092219
1290000000               -0.16830213090801022     0.8017213960481782
1320000000               -0.08489944174512001     0.8135309207531304
1350000000               -8.842748090161835E-4    0.8167093362039637
1380000000               0.08285526773954964      0.8112596862189432
1410000000               0.16543860882137054      0.7972758299757974
1440000000               0.24600191712892983      0.7749408713171667
1470000000               0.32370707531891707      0.7445246608278414
1500000000               0.3977503038292811       0.7063804075778789
1530000000               0.4673703537826375       0.6609404462638486
1560000000               0.5318561882920184       0.608711213572728
1590000000               0.5905540782085116       0.550267494950627
1620000000               0.6428740455504229       0.4862460095086603
1650000000               0.6882955956961553       0.417338406491717
1680000000               0.7263726875606121       0.3442837516208792
1710000000               0.7567378996010256       0.26786058552862807
1740000000               0.7791057583080421       0.18887863961892018
1770000000               0.793275204884515        0.10817029682062694
1800000000               0.7991311850251471       0.026581885919642452
1830000000               0.7966453560418572       -0.05503510164984374
1860000000               0.7858759148872448       -0.13583278440019528
1890000000               0.7669665600002287       -0.21497556673675802
1920000000               0.7401446090986532       -0.2916486353574927
1950000000               0.7057183039123484       -0.3650661983658691
1980000000               0.6640733410761744       -0.43447939606466657
2010000000               0.6156686751604664       -0.4991838219839526
2040000000               0.5610316438367958       -0.5585266049889033
2070000000               0.5007524641209818       -0.6119130188051849
2100000000               0.4354781385754457       -0.6588126028761557
2130000000               0.3659057859535869       -0.6987647940108738
2.16E9                   0.29277536605868787      -0.7313840718002522
2.19E9                   0.21686170217015627      -0.7563645918047959
2.22E9                   0.1389656314285599       -0.7734841864309637
2.25E9                   0.059904087573058186     -0.7826074200332267
2.28E9                   -0.019500948067783776    -0.7836870980013416
2.31E9                   -0.09843426086053686     -0.7767633787386592
2.34E9                   -0.17609886288802007     -0.7619597437535331
2.37E9                   -0.25172525839079923     -0.7394759272065008
2.4E9                    -0.3245767900236515      -0.7095794397016397
2.43E9                   -0.39395091099415747     -0.6725985521142737
2.46E9                   -0.4591785826807091      -0.6289191131752925
2.49E9                   -0.5196252002099818      -0.5789851816225281
2.52E9                   -0.5746952641627405      -0.523300978804607
2.55E9                   -0.623840491719276       -0.46243111591526215
2.58E9                   -0.6665693094771327      -0.3969974536126874
2.61E9                   -0.7024556028175708      -0.32767275630840875
2.64E9                   -0.7311455464894625      -0.2551722727757685
2.67E9                   -0.7523623018558807      -0.18024441031728378
2.7E9                    -0.7659088775392563      -0.10366127095725189
2.73E9                   -0.7716695621182309      -0.026209413041548685
2.76E9                   -0.7696102566757845      0.051319049783437015
2.79E9                   -0.7597779144039744      0.12813500822018234
2.82E9                   -0.7422992000122814      0.20346059517475512
2.85E9                   -0.7173784254047911      0.2765371087458105
2.88E9                   -0.6852947917571779      0.34663260625672576
2.91E9                   -0.6463989603673698      0.41304913654135555
2.94E9                   -0.6011089768395819      0.4751295651510183
2.97E9                   -0.5499055799055459      0.5322639403156124
3.0E9                    -0.49332693461137445     0.583895345280196
3.03E9                   -0.4319628380749625      0.6295251839883167
3.06E9                   -0.36644845392212927     0.6687178510119596
3.09E9                   -0.2974576381966984      0.7011047426184307
3.12E9                   -0.22569592486476067     0.7263875732402432
3.15E9                   -0.15189324255184308     0.7443409700222099
3.18E9                   -0.07679643573782952     0.7548143268431187
3.21E9                   -0.001161663250812417    0.7577329075571013
3.24E9                   0.07425325524136639      0.7530981953781428
3.27E9                   0.14869647710418654      0.7409874905955789
3.3E9                    0.22142969434507692      0.7215527618842764
3.33E9                   0.29173554802854246      0.6950187575112224
3.36E9                   0.358924835651971        0.6616803826587948
3.39E9                   0.42234344355816306      0.6218993493437874
3.42E9                   0.48137892890347356      0.5761001079632646
3.45E9                   0.5354666657677865       0.5247650764211967
3.48E9                   0.5840954594813267       0.46842919604334343
3.51E9                   0.6268125255410344       0.4076738639488034
3.54E9                   0.663227728421267        0.34312031884760774
3.57E9                   0.6930169853536917       0.275422588114341
3.6E9                    0.7159247628582079       0.20526013335314686
3.63E9                   0.7317656285930447       0.13333035269825153
3.66E9                   0.7404248630187802       0.06034110566021516
3.69E9                   0.7418581773394888       -0.012996581394348084
3.72E9                   0.7360906199454157       -0.08597549073779881
3.75E9                   0.7232147812846552       -0.15789875815887816
3.78E9                   0.703388428786806        -0.2280859063637206
3.81E9                   0.6768317213685855       -0.2958783230563377
3.84E9                   0.6438241634989801       -0.3606441882959025
3.87E9                   0.6047014506213042       -0.42178291664984546
3.9E9                    0.5598523178354791       -0.4787292425752025
3.93E9                   0.5097154278865306       -0.530957120747787
3.96E9                   0.45477623614933305      -0.5779836125080289
3.99E9                   0.3955636787061774       -0.619372873929958
4.02E9                   0.33264647805018427      -0.654740260248603
4.05E9                   0.26662886997779633      -0.6837564456277003
4.08E9                   0.1981456227818999       -0.7061513629840461
4.11E9                   0.12785632336927363      -0.7217177229447396
4.14E9                   0.0564390120861642       -0.730313882321326
4.17E9                   -0.015416669730077714    -0.7318658902653852
4.2E9                    -0.08701661458056353     -0.7263686224318754
4.23E9                   -0.1576694633988076      -0.7138859955791834
4.26E9                   -0.22669373305997517     -0.6945503173057028
4.29E9                   -0.293424741947424       -0.6685608574792995
4.32E9                   -0.3572212690582084      -0.6361817291032115
4.35E9                   -0.4174719162989489      -0.5977391457876883
4.38E9                   -0.47360115564296534     -0.5536180944243985
4.41E9                   -0.5250750348688946      -0.5042584385966622
4.44E9                   -0.5714064964308854      -0.45015045906561896
4.47E9                   -0.6121602436445414      -0.39182984423644585
4.5E9                    -0.6469570749911322      -0.3298721620931939
4.53E9                   -0.6754776047988758      -0.26488686991118326
4.56E9                   -0.6974652976759729      -0.19751094312431333
4.59E9                   -0.7127287634540509      -0.12840222536754103
4.62E9                   -0.7211432866517505      -0.05823261398387746
4.65E9                   -0.7226515957389842      0.012318804248906903
4.68E9                   -0.7172639067897557      0.0825725658347972
4.71E9                   -0.7050572956806938      0.15185551605605752
4.74E9                   -0.6861744559571766      0.21950732309804322
4.77E9                   -0.6608218839127231      0.2848868026320866
4.8E9                    -0.6292675044201809      0.3473780439711971
4.83E9                   -0.5918377236287168      0.4063963160071993
4.86E9                   -0.5489138819933302      0.4613937004570196
4.89E9                   -0.500928091759034       0.5118643638759163
4.92E9                   -0.4483584758778057      0.5573493534667845
4.95E9                   -0.39172387134426184     0.5974407954957441
4.98E9                   -0.3315781064048861      0.6317853930130432
5.01E9                   -0.26850399657484597     0.6600871584853643
5.04E9                   -0.20310721982950586     0.6821093700560843
5.07E9                   -0.13601022156911444     0.6976757971502998
5.1E9                    -0.06784626343347125     0.7066712895772986
5.13E9                   7.463278613697E-4        0.7090418497761171
5.16E9                   0.06912972052603338      0.704794298674914
5.19E9                   0.13667200519122674      0.6939955996472542
5.22E9                   0.2027525603376219       0.6767718362835239
5.25E9                   0.2667673898543416       0.6533067774594215
5.28E9                   0.32813439596789495      0.623839939590749
5.31E9                   0.3862984793985044       0.5886640870019484
5.34E9                   0.4407363244899877       0.5481221843621099
5.37E9                   0.4909607493474134       0.5026038940943289
5.4E9                    0.5365245681852653       0.45254175815924236
5.43E9                   0.5770239926249865       0.3984071979826713
5.46E9                   0.6121016555470995       0.34070641573422544
5.49E9                   0.6414493560479926       0.27997620967878445
5.52E9                   0.6648105973987786       0.21677965384098163
5.55E9                   0.6819829361432724       0.15170155629002527
5.58E9                   0.6928200977895514       0.08534360764942685
5.61E9                   0.6972337587468052       0.018319159492193312
5.64E9                   0.6951948567020914       -0.048752375340424224
5.67E9                   0.6867342817335985       -0.11525144058159627
5.7E9                    0.6719428256862348       -0.18056444235014435
5.73E9                   0.6509703293974148       -0.2440898594912817
5.76E9                   0.624024054671456        -0.3052441614880024
5.79E9                   0.5913663917576262       -0.36346737656427086
5.82E9                   0.5533120577235725       -0.41822823497900646
5.85E9                   0.5102249255295543       -0.4690289020015424
5.88E9                   0.46251455859357304      -0.5154093695823091
5.91E9                   0.41063244831619594      -0.5569515737770914
5.94E9                   0.3550679013903569       -0.5932832570577394
5.97E9                   0.2963435173926923       -0.624081532014458
6.0E9                    0.2350102277956644       -0.6490760547170432
