% Model:              three_layers reality at 0.1mm.mph
% Version:            COMSOL 5.6.0.280
% Date:               Mar 10 2022, 21:23
% Table:              表格 1 - 全局计算 1
% freq (Hz)              real(emw.S11) (1)        imag(emw.S11) (1)
300000000                0.4102155767025501       -0.7798624254371261
330000000                0.32565713104095395      -0.8161213897071558
360000000                0.23811873670076056      -0.8434288577351974
390000000                0.14851603213530443      -0.8615394269901583
420000000                0.057790026560130596     -0.870303474295943
450000000                -0.03310458672456438     -0.8696693205576708
480000000                -0.12321078349264064     -0.8596841405048908
510000000                -0.21158027449036665     -0.840493657641895
540000000                -0.2972842637925074      -0.8123406630317161
570000000                -0.3794238430968993      -0.775562399367252
600000000                -0.45713994605409164     -0.7305868578241953
630000000                -0.5296227779204034      -0.6779280428476164
660000000                -0.596120633036689       -0.6181802686104407
690000000                -0.6559480137442041      -0.5520115598468177
720000000                -0.7084929691737321      -0.4801562384333883
750000000                -0.7532235786758616      -0.4034067854784274
780000000                -0.7896935133445571      -0.3226050761198398
810000000                -0.8175466186924303      -0.23863309093621662
840000000                -0.8365204726695968      -0.15240321299256795
870000000                -0.8464488845889957      -0.06484822426001978
900000000                -0.8472633131305987      0.023088882672109744
930000000                -0.8389931939868405      0.11046515981682732
960000000                -0.8217651805981925      0.1963479084013945
990000000                -0.7958013140623579      0.27982471711922957
1020000000               -0.7614161508048851      0.3600132205811022
1050000000               -0.7190128884376771      0.4360704698664412
1080000000               -0.6690785417856713      0.5072018116984539
1110000000               -0.6121782313728306      0.5726691806239715
1140000000               -0.5489486565051163      0.6317987158768125
1170000000               -0.4800908335934755      0.6839876239140295
1200000000               -0.40636218777717137     0.7287102173488547
1230000000               -0.3285680921883503      0.7655230714147838
1260000000               -0.24755295416540657     0.7940692500439909
1290000000               -0.16419095137748219     0.8140815649875036
1320000000               -0.07937652305045724     0.825384842915751
1350000000               0.005985277150818646     0.8278971868422874
1380000000               0.09098846060434412      0.8216302297503735
1410000000               0.1747357107735871       0.8066883893570556
1440000000               0.256347815602671        0.7832671437343173
1470000000               0.33497282682055474      0.751650357771625
1500000000               0.4097948521985291       0.7122067001290464
1530000000               0.48004239239453295      0.6653851993385496
1560000000               0.544996140395935        0.6117099959200857
1590000000               0.6039961685017521       0.5517743548356732
1620000000               0.6564484354573189       0.48623400924332105
1650000000               0.7018305545988263       0.41579991207629413
1680000000               0.7396967722171042       0.3412304770173682
1710000000               0.7696821145010934       0.2633233940832315
1740000000               0.7915056704123924       0.18290710816467776
1770000000               0.8049729872835979       0.10083205083669455
1800000000               0.809977565438091        0.0179617167846413
1830000000               0.8065014477106001       -0.06483632375905003
1860000000               0.7946149093724864       -0.14669938617241784
1890000000               0.7744752635816816       -0.22677851809093738
1920000000               0.7463248069420594       -0.30424714699072786
1950000000               0.7104879388947908       -0.37830944949535145
1980000000               0.6673674971224504       -0.4482083705510756
2010000000               0.6174403581242314       -0.5132332306036539
2040000000               0.5612523563081114       -0.5727268720504848
2070000000               0.49941257373685954      -0.6260923128310822
2100000000               0.43258704216363564      -0.6727988938681893
2130000000               0.3614918732077291       -0.7123879243120576
2.16E9                   0.2868857849270519       -0.7444778335827387
2.19E9                   0.20956192180191682      -0.768768810469346
2.22E9                   0.1303387848951143       -0.7850468124686227
2.25E9                   0.05005005560356573      -0.7931866251483194
2.28E9                   -0.030466773500955748    -0.793153345054812
2.31E9                   -0.11038260079680491     -0.7850013826943607
2.34E9                   -0.18888859384171008     -0.7688701727618236
2.37E9                   -0.2652058034286102      -0.7449766506500054
2.4E9                    -0.3385906526108407      -0.713606174481983
2.43E9                   -0.40833606155688784     -0.6751049134780319
2.46E9                   -0.4737704660132387      -0.629876269305804
2.49E9                   -0.5342583219649348      -0.5783814063073043
2.52E9                   -0.5892045082886437      -0.5211413239580962
2.55E9                   -0.6380623925627966      -0.4587372536494783
2.58E9                   -0.6803434410523278      -0.3918075932657179
2.61E9                   -0.7156261338032202      -0.3210414927293545
2.64E9                   -0.7435629204295982      -0.24717025066017617
2.67E9                   -0.763884963657961       -0.17095774529712568
2.7E9                    -0.7764049670897673      -0.0931907161813158
2.73E9                   -0.7810185125170319      -0.014669288763416506
2.76E9                   -0.777704253539881       0.06380213343676593
2.79E9                   -0.7665231879116453      0.14142360200754117
2.82E9                   -0.7476171318523696      0.21740800280408626
2.85E9                   -0.7212064595814888      0.29098909059718736
2.88E9                   -0.6875871425873016      0.3614291673470531
2.91E9                   -0.6471271140420202      0.4280263732760277
2.94E9                   -0.6002619852210821      0.4901215468688916
2.97E9                   -0.5474901472647752      0.5471046026386084
3.0E9                    -0.48936729985569144     0.5984203732115396
3.03E9                   -0.4265004568953476      0.643573863477519
3.06E9                   -0.35954148710885275     0.6821348685667421
3.09E9                   -0.2891802542336103      0.71374191346858
3.12E9                   -0.2161374266939512      0.7381054796958868
3.15E9                   -0.1411570301117493      0.7550104929744575
3.18E9                   -0.06499881741132522     0.7643180548929384
3.21E9                   0.011569469358158458     0.7659664099838585
3.24E9                   0.08777987380061135      0.7599711469698264
3.27E9                   0.16287196830878675      0.7464246382137099
3.3E9                    0.23610050063740928      0.7254947243104793
3.33E9                   0.3067428809544822       0.6974226515455668
3.36E9                   0.37410644558431216      0.6625202694947836
3.39E9                   0.43753542940733614      0.6211664959015644
3.42E9                   0.49641757102892026      0.5738030582356289
3.45E9                   0.5501902642458429       0.52092952818176
3.48E9                   0.5983461582009254       0.4630976788061591
3.51E9                   0.6404381002316246       0.4009052153367654
3.54E9                   0.6760833140690323       0.33498895880714175
3.57E9                   0.7049667158975421       0.2660175942155572
3.6E9                    0.7268432944345591       0.19468412549811295
3.63E9                   0.7415395174406442       0.12169820184152746
3.66E9                   0.7489537710553048       0.04777848773772403
3.69E9                   0.7490558823799603       -0.026354758848797972
3.72E9                   0.7418858133348746       -0.09998675678206405
3.75E9                   0.7275516428361709       -0.17241480532632786
3.78E9                   0.7062269770239461       -0.24295433841302147
3.81E9                   0.6781479458315975       -0.3109443861030856
3.84E9                   0.643609954877542        -0.37575245078456093
3.87E9                   0.6029643528446965       -0.43677886965390833
3.9E9                    0.5566151323612856       -0.4934608012617037
3.93E9                   0.505015702599176        -0.5452760193858099
3.96E9                   0.44866566816834585      -0.5917466972241636
3.99E9                   0.38810745239635236      -0.6324433065079866
4.02E9                   0.32392254837094364      -0.6669886504968495
4.05E9                   0.2567271900246009       -0.6950619281537542
4.08E9                   0.18716730587508296      -0.7164026275754041
4.11E9                   0.11591272631461927      -0.7308139983461015
4.14E9                   0.04365072753492445      -0.738165863867595
4.17E9                   -0.028920918560961264    -0.7383965948379788
4.2E9                    -0.10110117612444523     -0.7315141508851706
4.23E9                   -0.17219304875050484     -0.7175961832232158
4.26E9                   -0.2415107818304419      -0.6967892563956678
4.29E9                   -0.3083868457427002      -0.6693072804782507
4.32E9                   -0.37217863449151123     -0.6354292463307035
4.35E9                   -0.43227485050569303     -0.5954963347573508
4.38E9                   -0.48810155887185        -0.5499084403489939
4.41E9                   -0.5391278861945125      -0.4991201263050523
4.44E9                   -0.5848713191388567      -0.4436360166471596
4.47E9                   -0.6249025364503679      -0.3840056387386802
4.5E9                    -0.6588496940745842      -0.3208177482496218
4.53E9                   -0.6864020802841265      -0.254694194372536
4.56E9                   -0.7073130670947899      -0.18628340912564958
4.59E9                   -0.7214023043856956      -0.11625362598777145
4.62E9                   -0.7285571315191357      -0.04528594571988464
4.65E9                   -0.7287332137867483      0.02593263248652726
4.68E9                   -0.7219544414708766      0.09671611051193432
4.71E9                   -0.7083121495943758      0.16638624455914797
4.74E9                   -0.6879637192931386      0.23427910830021018
4.77E9                   -0.661130605221459       0.29975144928970554
4.8E9                    -0.6280958038675644      0.36218683191319573
4.83E9                   -0.5892007487330896      0.4210015466007496
4.86E9                   -0.5448416048726034      0.4756502330250518
4.89E9                   -0.4954649462135695      0.5256311273042164
4.92E9                   -0.4415628331780063      0.5704908156210348
4.95E9                   -0.38366735598378654     0.6098283702018139
4.98E9                   -0.3223447573362487      0.6432987622611264
5.01E9                   -0.2581892849072405      0.6706154872366641
5.04E9                   -0.19181693988314646     0.6915523929808227
5.07E9                   -0.12385927718916108     0.705944761040061
5.1E9                    -0.05495737456919106     0.713689741438643
5.13E9                   0.014243973044066927     0.7147462676767564
5.16E9                   0.08310184555135064      0.709134568665698
5.19E9                   0.1509806396938771       0.6969353458950608
5.22E9                   0.21725743691132993      0.678288612061968
5.25E9                   0.2813273349016276       0.6533921222530941
5.28E9                   0.3426087066917841       0.6224993041065034
5.31E9                   0.4005482765241759       0.5859166257472387
5.34E9                   0.4546258666278338       0.5440004163207621
5.37E9                   0.5043586922313585       0.4971532360432175
5.4E9                    0.5493051524517018       0.445819940703778
5.43E9                   0.5890681474422994       0.3904835792180698
5.46E9                   0.6232980112343974       0.33166120965767965
5.49E9                   0.6516951648226001       0.26989964548921735
5.52E9                   0.6740125658819001       0.20577107856164326
5.55E9                   0.6900579751094114       0.13986848804268745
5.58E9                   0.6996959937181725       0.0728007418540274
5.61E9                   0.7028497683935971       0.00518732659034275
5.64E9                   0.6995022210971602       -0.06234730339562766
5.67E9                   0.68969665098941         -0.12917969637416046
5.7E9                    0.6735365821904638       -0.19469355868167193
5.73E9                   0.6511847958768631       -0.25828590566912557
5.76E9                   0.62286157605718         -0.3193730050271153
5.79E9                   0.5888422853497869       -0.37739595102594087
5.82E9                   0.5494544330147653       -0.43182579419075495
5.85E9                   0.5050743806279323       -0.48216824413517145
5.88E9                   0.4561237626237802       -0.5279680196858296
5.91E9                   0.403065618246737        -0.5688129179630476
5.94E9                   0.34640017877146934      -0.60433762387864
5.97E9                   0.28666024741469087      -0.6342272161813493
6.0E9                    0.22440614136594733      -0.6582202760114797
