% Model:              three_layers reality at 0.1mm.mph
% Version:            COMSOL 5.6.0.280
% Date:               Mar 8 2022, 10:16
% Table:              表格 1 - 全局计算 1
% freq (Hz)              real(emw.S11) (1)        imag(emw.S11) (1)
300000000                0.4120529574062648       -0.7800596263619886
330000000                0.3276140251603433       -0.81646417751337
360000000                0.24018261684897413      -0.8439476759371575
390000000                0.15066895237761457      -0.8622632328586507
420000000                0.0600088645430045       -0.8712589344244306
450000000                -0.030847782193131047    -0.8708800397082825
480000000                -0.12094834202103506     -0.8611699400741527
510000000                -0.2093483571889907      -0.8422699185997029
540000000                -0.2951222283660549      -0.814417746653988
570000000                -0.3773735318524323      -0.7779451573868221
600000000                -0.45524490878531093     -0.7332742420612478
630000000                -0.5279274434222776      -0.6809128224667427
660000000                -0.5946694437018482      -0.6214488613129494
690000000                -0.6547845385735657      -0.5555439812942781
720000000                -0.7076590109330821      -0.48392617218182193
750000000                -0.7527582912006836      -0.40738177357536004
780000000                -0.7896325448907648      -0.3267468283459042
810000000                -0.8179212967926633      -0.24289790878304096
840000000                -0.8373570454044992      -0.15674252236254616
870000000                -0.847767832304628       -0.06920920884690601
900000000                -0.8490787434119691      0.018762556888474252
930000000                -0.8413123314026096      0.10623254027687135
960000000                -0.8245879611504914      0.19226988466197276
990000000                -0.7991200925672668      0.2759630962065355
1020000000               -0.7652155275148789      0.3564297641161612
1050000000               -0.7232696593419222      0.43282590821443484
1080000000               -0.6737617748796534      0.5043548512875111
1110000000               -0.6172494692258935      0.5702755204146487
1140000000               -0.5543622433324774      0.6299100890474061
1170000000               -0.48579436303583023     0.682650880365198
1200000000               -0.41229706569399616     0.7279664620037175
1230000000               -0.3346702068785088      0.7654068724705894
1260000000               -0.25375344475148387     0.7946079302177163
1290000000               -0.17041706359521705     0.8152945875025174
1320000000               -0.08555254028786728     0.8272833025522195
1350000000               -6.295914070282293E-5    0.8304834147642872
1380000000               0.08514661988172811      0.8248975190977138
1410000000               0.1691787353699212       0.8106208467859656
1440000000               0.2511529395237096       0.7878396702331134
1470000000               0.3302149557165276       0.7568287601869186
1500000000               0.4055454847520869       0.7179479329280896
1530000000               0.4763685711308986       0.6716377342853668
1560000000               0.541959446988925        0.6184143155137338
1590000000               0.601651777981314        0.558863563626321
1620000000               0.6548442429109734       0.49363455548408797
1650000000               0.7010063869154444       0.4234324106844379
1680000000               0.7396836963163654       0.3490106233634204
1710000000               0.7705018520883553       0.2711629569704141
1740000000               0.7931701279166025       0.19071498922017113
1770000000               0.807483908037294        0.10851539668272883
1800000000               0.813326309507044        0.025427069652841323
1830000000               0.810668903058285        -0.05768185183731794
1860000000               0.7995715362434105       -0.1399469306733346
1890000000               0.7801812721815353       -0.22051628602170237
1920000000               0.7527304666456538       -0.29855926257162446
1950000000               0.7175340154182103       -0.37327483601049105
1980000000               0.6749858123662481       -0.4438996820412416
2010000000               0.625554465798345        -0.5097158460004373
2040000000               0.5697783251589058       -0.5700579627755985
2070000000               0.508259869368881        -0.624319992990158
2100000000               0.4416594983598101       -0.6719614599671826
2130000000               0.37068874490424214      -0.7125131890676761
2.16E9                   0.2961028777631608       -0.7455825568623509
2.19E9                   0.21869279801935892      -0.7708582307055604
2.22E9                   0.1392760514137521       -0.7881142864982484
2.25E9                   0.05868674455085792      -0.7972133958131087
2.28E9                   -0.022235725153579546    -0.7981084750127074
2.31E9                   -0.10265878656671337     -0.7908419144235364
2.34E9                   -0.18176854573807014     -0.7755415827786458
2.37E9                   -0.2587794854118816      -0.7524136369381111
2.4E9                    -0.33294018227594474     -0.7217337394573997
2.43E9                   -0.4035347648466805      -0.6838396107098927
2.46E9                   -0.46988226292101115     -0.6391274374016556
2.49E9                   -0.5313373295352711      -0.5880522628734529
2.52E9                   -0.5872947088824514      -0.5311299049244188
2.55E9                   -0.6371972657997014      -0.46893727756287745
2.58E9                   -0.6805455443091278      -0.40210935488449845
2.61E9                   -0.716906679074738       -0.3313328568236363
2.64E9                   -0.7459214144816627      -0.2573377665478158
2.67E9                   -0.7673089667882046      -0.18088786511815208
2.7E9                    -0.780870004046444       -0.1027710824423329
2.73E9                   -0.7864881498250544      -0.02379005376090239
2.76E9                   -0.7841303446326644      0.05524698972343997
2.79E9                   -0.7738462802291188      0.1335349832242335
2.82E9                   -0.7557670264523255      0.21028045918814078
2.85E9                   -0.7301029121099488      0.2847096519820427
2.88E9                   -0.6971406935972393      0.3560762616291535
2.91E9                   -0.6572400361101706      0.42366884345052763
2.94E9                   -0.6108293338231979      0.486817777955824
2.97E9                   -0.5584009018744268      0.5449017682359644
3.0E9                    -0.5005055812470761      0.5973538099045882
3.03E9                   -0.4377468061240574      0.643666579899639
3.06E9                   -0.37077419123590954     0.6833971943764937
3.09E9                   -0.30027670352314684     0.7161712919692683
3.12E9                   -0.2269754878028734      0.7416864062264003
3.15E9                   -0.15161641976703708     0.7597145995593446
3.18E9                   -0.07496246126653965     0.7701043399879763
3.21E9                   0.0022141076337575784    0.7727816105844998
3.24E9                   0.07913950753397679      0.7677502488767273
3.27E9                   0.15504626048321413      0.7550915189549658
3.3E9                    0.22918090691321408      0.7349629221812561
3.33E9                   0.30081157489943         0.7075962534035923
3.36E9                   0.36923533722434976      0.6732949093546976
3.39E9                   0.4337852877414413       0.6324304558646193
3.42E9                   0.4938372608856252       0.5854384627506044
3.45E9                   0.548816107900194        0.532813621857981
3.48E9                   0.598201432316877        0.47510417680228456
3.51E9                   0.6415326787736764       0.41290571356196176
3.54E9                   0.6784134674314004       0.3468543888506299
3.57E9                   0.7085150754203196       0.27761970502533645
3.6E9                    0.7315789892261461       0.2058969709434996
3.63E9                   0.7474184871029668       0.13239961061767952
3.66E9                   0.7559192534696028       0.05785149033483903
3.69E9                   0.7570390706258152       -0.017020571930963097
3.72E9                   0.7508066705077902       -0.09149397049233497
3.75E9                   0.73731985841472         -0.1648570318971136
3.78E9                   0.7167430438089095       -0.23641520467331484
3.81E9                   0.6893043326486521       -0.3054966705219172
3.84E9                   0.6552923476585666       -0.37145737831227416
3.87E9                   0.6150529360929092       -0.4336855652428704
3.9E9                    0.5689858850934358       -0.49160589547815
3.93E9                   0.5175416878697471       -0.5446833932181043
3.96E9                   0.46121830264024144      -0.5924273495014284
3.99E9                   0.40055775046621545      -0.6343953274310004
4.02E9                   0.3361423421798586       -0.6701972884898184
4.05E9                   0.2685903304298384       -0.6994997435403456
4.08E9                   0.19855084949575108      -0.7220297333853515
4.11E9                   0.1266981103842799       -0.737578394028678
4.14E9                   0.053724928923318066     -0.7460038704152767
4.17E9                   -0.019664249521240153    -0.7472333994498772
4.2E9                    -0.09276062095875144     -0.7412644663446538
4.23E9                   -0.16485838181722576     -0.7281650226678797
4.26E9                   -0.2352620037100186      -0.7080728193915008
4.29E9                   -0.3032933042768273      -0.681193942313259
4.32E9                   -0.3682982461181749      -0.6478006398070293
4.35E9                   -0.4296534317798486      -0.6082285125528901
4.38E9                   -0.4867722758843391      -0.5628731058486001
4.41E9                   -0.5391108281797735      -0.5121859210586852
4.44E9                   -0.5861732018820986      -0.4566698527561368
4.47E9                   -0.6275165407772358      -0.3968740641185482
4.5E9                    -0.6627554443422397      -0.33338833180298344
4.53E9                   -0.6915657669941944      -0.26683691679620475
4.56E9                   -0.7136877163361061      -0.197872043591038
4.59E9                   -0.7289281947204439      -0.12716709162011375
4.62E9                   -0.737162356167533       -0.05540961606170092
4.65E9                   -0.7383343828665543      0.016705683813206727
4.68E9                   -0.7324575159408728      0.08848394367455403
4.71E9                   -0.719613395963462       0.159236981641901
4.74E9                   -0.6999507725137275      0.22828996779571012
4.77E9                   -0.6736836266951944      0.2949878964671404
4.8E9                    -0.6410887218975886      0.35870185259425624
4.83E9                   -0.6025025695055963      0.41883505089516193
4.86E9                   -0.5583177823809309      0.47482859561202323
4.89E9                   -0.5089787989104811      0.5261668713102668
4.92E9                   -0.4549769934166139      0.5723824473604586
4.95E9                   -0.39684523575365277     0.6130603713331082
4.98E9                   -0.3351520110609954      0.6478417438230015
5.01E9                   -0.27049524787340085     0.6764265065523747
5.04E9                   -0.20349601987433585     0.6985754298593304
5.07E9                   -0.13479227767016333     0.714111344671976
5.1E9                    -0.06503273043010953     0.7229197147764742
5.13E9                   0.005129061941535973     0.7249486728382013
5.16E9                   0.0750403927499578       0.7202086357387446
5.19E9                   0.14405496769924878      0.7087715686038827
5.22E9                   0.2115383924062778       0.6907698963962305
5.25E9                   0.2768736256324921       0.6663949969695796
5.28E9                   0.3394663633588046       0.6358951834558102
5.31E9                   0.39875024472247383      0.5995731140169032
5.34E9                   0.45419173426048404      0.5577826412043038
5.37E9                   0.5052945559687816       0.5109251948264951
5.4E9                    0.551603622926006        0.45944584146338274
5.43E9                   0.5927084881775463       0.40382915972862143
5.46E9                   0.6282464024138609       0.34459501946695004
5.49E9                   0.6579050809456217       0.2822942808013713
5.52E9                   0.6814252565807781       0.21750436384033356
5.55E9                   0.6986030404727259       0.1508246015444485
5.58E9                   0.7092920486090908       0.08287128384025372
5.61E9                   0.7134051934890977       0.014272328571583557
5.64E9                   0.7109160007846491       -0.05433843220058015
5.67E9                   0.7018592990234357       -0.12232729256965269
5.7E9                    0.6863311546426815       -0.18906690902993928
5.73E9                   0.6644879873952658       -0.2539425457163848
5.76E9                   0.6365448905823347       -0.3163581259979361
5.79E9                   0.6027732677137347       -0.3757419267409448
5.82E9                   0.563497944920192        -0.4315518354247925
5.85E9                   0.5190939042882968       -0.48328018288691343
5.88E9                   0.46998271749439735      -0.5304582221013455
5.91E9                   0.41662867935596815      -0.572660323174875
5.94E9                   0.35953458761518553      -0.6095079065897007
5.97E9                   0.2992371072488069       -0.6406730724148901
6.0E9                    0.236301687956081        -0.6658818329194002
