% Model:              three_layers reality at 0.1mm.mph
% Version:            COMSOL 5.6.0.280
% Date:               Mar 7 2022, 10:09
% Table:              表格 1 - 全局计算 1
% freq (Hz)              real(emw.S11) (1)        imag(emw.S11) (1)
300000000                0.5499474291564042       -0.7408169054006668
330000000                0.479959377669946        -0.786373849465804
360000000                0.4063480288476573       -0.8254629946112912
390000000                0.3296839876059702       -0.8577907619768951
420000000                0.25056693383835266      -0.8831137761819701
450000000                0.1696200127080344       -0.9012419291137441
480000000                0.0874842511528863       -0.9120407851847336
510000000                0.004812955749628145     -0.9154333815141739
540000000                -0.07773392102657369     -0.9114014521870794
570000000                -0.1594954360586286      -0.8999860916019511
600000000                -0.23981531112627252     -0.8812878650907798
630000000                -0.31804755625596715     -0.8554663719764947
660000000                -0.3935620224325851      -0.8227392664260169
690000000                -0.46574984131102604     -0.7833807431796527
720000000                -0.534028705407339       -0.7377194987813633
750000000                -0.597847941808925       -0.6861361827286968
780000000                -0.6566933305849576      -0.6290603582934655
810000000                -0.7100916208795788      -0.5669669972405167
840000000                -0.7576146981122683      -0.5003725384518418
870000000                -0.7988833584390309      -0.4298305457083066
900000000                -0.8335706502559536      -0.355927004352441
930000000                -0.8614047457313774      -0.2792753023991398
960000000                -0.8821713110880008      -0.20051094462767471
990000000                -0.8957153490562386      -0.12028605285941746
1020000000               -0.9019424932374301      -0.03926370820545531
1050000000               -0.9008197404276359      0.04188780684022081
1080000000               -0.8923756135903796      0.12250080713084506
1110000000               -0.8766997550081475      0.20191398433823338
1140000000               -0.8539419560015334      0.27947810807463064
1170000000               -0.8243106363558126      0.3545615903378212
1200000000               -0.7880707930321494      0.4265558574677729
1230000000               -0.7455414438788778      0.4948804766266681
1260000000               -0.6970925977133758      0.5589879875148017
1290000000               -0.6431417870826932      0.6183683945030028
1320000000               -0.5841502044818689      0.672553279162927
1350000000               -0.5206184864005493      0.7211194985137875
1380000000               -0.4530821924124512      0.7636924400378948
1410000000               -0.38210702874511643     0.799948810199508
1440000000               -0.3082838667275189      0.8296189393605019
1470000000               -0.23222360764754413     0.8524885914750784
1500000000               -0.15455194462338417     0.868400273106527
1530000000               -0.0759040717955804      0.8772540414281981
1560000000               0.003080610583157828     0.8790078161933578
1590000000               0.08176374861920942      0.8736772053649848
1620000000               0.15951320054383392      0.8613348584090386
1650000000               0.2357080746363087       0.8421093650619679
1680000000               0.3097436009172249       0.8161837207394034
1710000000               0.38103580186034397      0.7837933825245925
1740000000               0.44902593052660156      0.7452239420381352
1770000000               0.5131846481456084       0.7008084433125881
1800000000               0.573015916588733        0.6509243751699689
1830000000               0.6280605844303949       0.5959903686891032
1860000000               0.6778996487939128       0.536462630870567
1890000000               0.7221571781617038       0.47283114598886977
1920000000               0.7605028844534204       0.4056156761613221
1950000000               0.7926543356108813       0.3353615924248195
1980000000               0.8183788028488351       0.26263556699322915
2010000000               0.8374947394918589       0.1880211566680755
2040000000               0.8498728911984319       0.11211430580233349
2070000000               0.8554370400149716       0.03551879515550909
2100000000               0.8541643868937385       -0.041158340594703614
2130000000               0.8460855781350696       -0.11731140880647933
2.16E9                   0.8312843790686053       -0.19234065734389147
2.19E9                   0.8098969902477976       -0.2656568721748358
2.22E9                   0.7821109843807769       -0.3366859743844033
2.25E9                   0.7481638147958972       -0.4048736083006153
2.28E9                   0.7083408169214934       -0.46968967580392457
2.31E9                   0.662972619341889        -0.5306326981332758
2.34E9                   0.6124319453129925       -0.5872337929235064
2.37E9                   0.5571299463186451       -0.6390600142155106
2.4E9                    0.4975124058007399       -0.6857169199311036
2.43E9                   0.43405621026225916      -0.7268505207581799
2.46E9                   0.36726626408161156      -0.7621490414561565
2.49E9                   0.2976726307686004       -0.7913449234902128
2.52E9                   0.22582744053482653      -0.8142171769417406
2.55E9                   0.152301202617096        -0.8305938236239939
2.58E9                   0.07767846240607189      -0.8403540397170977
2.61E9                   0.0025529842000354464    -0.8434297184904846
2.64E9                   -0.07247729528857541     -0.839806362158401
2.67E9                   -0.14681535415559743     -0.8295233398386325
2.7E9                    -0.21987010795244777     -0.812673590202763
2.73E9                   -0.29106132004368357     -0.7894028375796939
2.76E9                   -0.35982437756141483     -0.7599083660666811
2.79E9                   -0.4256149155664883      -0.7244373765959236
2.82E9                   -0.4879132679569062      -0.6832849414744273
2.85E9                   -0.5462287180666496      -0.636791567790561
2.88E9                   -0.6001035171351069      -0.5853403827515594
2.91E9                   -0.6491166365989579      -0.5293539577141693
2.94E9                   -0.692887219322722       -0.4692907925420774
2.97E9                   -0.7310776959294533      -0.4056414868096891
3.0E9                    -0.7633965344976454      -0.3389246290617693
3.03E9                   -0.7896005949686027      -0.2696824396169933
3.06E9                   -0.8094970633829986      -0.19847620628267346
3.09E9                   -0.8229449456004172      -0.12588155531577852
3.12E9                   -0.8298561050086841      -0.0524836025694863
3.15E9                   -0.8301958340389416      0.021127968715351372
3.18E9                   -0.8239829547034339      0.09436385611975145
3.21E9                   -0.8112894487922073      0.16664006492672484
3.24E9                   -0.7922396235416695      0.23738276717995227
3.27E9                   -0.7670088233243864      0.30603304799231035
3.3E9                    -0.7358217021927778      0.37205149588565134
3.33E9                   -0.6989500756993725      0.434922596457445
3.36E9                   -0.6567103737332799      0.49415889047155903
3.39E9                   -0.609460718948017       0.5493048597831169
3.42E9                   -0.5575976583673284      0.59994050606941
3.45E9                   -0.5015525789716581      0.6456845890816504
3.48E9                   -0.4417878419275934      0.6861974928494912
3.51E9                   -0.37879267471913675     0.7211836906738269
3.54E9                   -0.3130788656310684      0.7503937833440967
3.57E9                   -0.24517631034589835     0.7736260904361232
3.6E9                    -0.1756284648759996      0.7907277820941769
3.63E9                   -0.10498776159091996     0.8015955480429273
3.66E9                   -0.033811044850379626    0.806175810828459
3.69E9                   0.03734492032207335      0.8044645000703409
3.72E9                   0.10792781850862934      0.7965064128735424
3.75E9                   0.1773939917699682       0.7823941921195741
3.78E9                   0.24521245115336152      0.7622669596197955
3.81E9                   0.31086866639854877      0.7363086454715644
3.84E9                   0.37386811918934626      0.7047460576069243
3.87E9                   0.4337396177828538       0.6678467346571358
3.9E9                    0.4900383840362407       0.6259166183692735
3.93E9                   0.542348932741944        0.5792975686554986
3.96E9                   0.5902877646497705       0.5283647271614506
3.99E9                   0.6335058860559667       0.4735237194624988
4.02E9                   0.6716911518080431       0.4152076771894792
4.05E9                   0.7045704100241719       0.35387406298977536
4.08E9                   0.7319114122143994       0.29000129254820106
4.11E9                   0.753524445992407        0.224085165208267
4.14E9                   0.7692636507092576       0.15663513226181336
4.17E9                   0.7790279870359381       0.08817044528498472
4.2E9                    0.7827618461824376       0.019216233218453435
4.23E9                   0.7804552989929825       -0.049700444145665656
4.26E9                   0.7721439962709941       -0.11805452521026204
4.29E9                   0.7579087375357375       -0.18532682666456354
4.32E9                   0.7378747258597329       -0.2510078522714629
4.35E9                   0.7122105228218217       -0.3146015146135994
4.38E9                   0.681126712396879        -0.3756287563297582
4.41E9                   0.6448742781243002       -0.43363105604376434
4.44E9                   0.603742695852753        -0.4881738003705646
4.47E9                   0.5580577453429616       -0.5388494988374285
4.5E9                    0.5081790474599842       -0.5852808150502548
4.53E9                   0.4544973388147831       -0.6271233855729329
4.56E9                   0.39743150144520034      -0.6640683982775574
4.59E9                   0.3374253707098401       -0.6958449042580586
4.62E9                   0.27494434906523874      -0.7222218417144154
4.65E9                   0.21047185616348474      -0.7430097558823017
4.68E9                   0.14450564579250075      -0.7580622052931435
4.71E9                   0.07755401760777936      -0.7672768497590179
4.74E9                   0.010131947075477044     -0.7705962178599635
4.77E9                   -0.057242847090291885    -0.7680081503993051
4.8E9                    -0.12405388043579962     -0.759545911962378
4.83E9                   -0.1897899045839928      -0.7452879575795109
4.86E9                   -0.25394890565863737     -0.7253573387323079
4.89E9                   -0.31604206216615865     -0.6999207348206326
4.92E9                   -0.375597616559491       -0.6691871034510272
4.95E9                   -0.43216460985854194     -0.6334059541896889
4.98E9                   -0.48531642865542707     -0.5928652636040178
5.01E9                   -0.5346541195179053      -0.5478890617315022
5.04E9                   -0.5798094357456937      -0.49883472948782465
5.07E9                   -0.6204475945333625      -0.4460900508746424
5.1E9                    -0.6562697359680565      -0.39007006202974087
5.13E9                   -0.6870150857872874      -0.33121373103463503
5.16E9                   -0.7124628275844392      -0.2699804903871158
5.19E9                   -0.732433685499432       -0.20684663238263934
5.22E9                   -0.7467912063741692      -0.1423015726200608
5.25E9                   -0.7554427168719505      -0.07684399210097753
5.28E9                   -0.7583399236259853      -0.010977883830209182
5.31E9                   -0.755479129235733       0.05479145150868652
5.34E9                   -0.7469010534624341      0.11996140293837346
5.37E9                   -0.7326902708989099      0.18403598082162606
5.4E9                    -0.7129742944358051      0.24652963555486865
5.43E9                   -0.6879223413433935      0.3069709345293131
5.46E9                   -0.6577438147372705      0.36490608579044426
5.49E9                   -0.6226865215519457      0.4199023067010642
5.52E9                   -0.5830346348584529      0.4715510366545592
5.55E9                   -0.5391063985060164      0.5194709859053406
5.58E9                   -0.4912515681652081      0.5633110016177801
5.61E9                   -0.43984858570108837     0.6027527202377688
5.64E9                   -0.3853014928269158      0.6375129653250623
5.67E9                   -0.32803660425670006     0.6673458444501598
5.7E9                    -0.2684989782736474      0.6920445002877583
5.73E9                   -0.20714873971557424     0.711442482004063
5.76E9                   -0.14445732105608472     0.7254147229873005
5.79E9                   -0.08090368582013277     0.7338781350907909
5.82E9                   -0.01697058390547106     0.7367918489976626
5.85E9                   0.04685913392771255      0.7341571370900759
5.88E9                   0.11010613453197902      0.7260170475062732
5.91E9                   0.17229815436795004      0.7124557619630649
5.94E9                   0.23297348128386927      0.6935976749369287
5.97E9                   0.29168435045176777      0.6696061848394468
6.0E9                    0.3480002265012061       0.6406821901473826
