% Model:              three_layers reality at 0.1mm.mph
% Version:            COMSOL 5.6.0.280
% Date:               Mar 10 2022, 20:51
% Table:              表格 1 - 全局计算 1
% freq (Hz)              real(emw.S11) (1)        imag(emw.S11) (1)
300000000                0.42323535641344157      -0.8114627751491457
330000000                0.3345675221013082       -0.849071678269258
360000000                0.242835877947379        -0.8772027758461557
390000000                0.149010759111518        -0.8956176579554992
420000000                0.05408735837593923      -0.9041755450818851
450000000                -0.04092594149657707     -0.9028368450814039
480000000                -0.1350192682475777      -0.8916649689742724
510000000                -0.2271928719204679      -0.8708265700362662
540000000                -0.31646852718897184     -0.840590327903187
570000000                -0.4019006095861721      -0.8013243769271204
600000000                -0.4825867291644798      -0.7534924674768604
630000000                -0.5576778089008354      -0.6976489470725515
660000000                -0.6263875009608652      -0.6344326497105578
690000000                -0.6880008390576777      -0.5645597873923889
720000000                -0.7418820342803154      -0.4888159434970978
750000000                -0.7874813303707966      -0.4080472749192852
780000000                -0.8243408458230713      -0.32315103581199534
810000000                -0.8520993414890454      -0.2350655422247528
840000000                -0.8704958655127228      -0.14475970122827955
870000000                -0.8793722406251643      -0.05322223220442446
900000000                -0.8786743729186743      0.03854929016336151
930000000                -0.8684523753517909      0.12955944047621196
960000000                -0.8488595135492348      0.21882586552485966
990000000                -0.8201499955015393      0.3053899979719839
1020000000               -0.782675640453136       0.38832743787417806
1050000000               -0.7368814753645515      0.4667578841274379
1080000000               -0.6833003196265192      0.5398545050915071
1110000000               -0.6225464300639261      0.6068526456858453
1140000000               -0.5553082884825735      0.6670577777141171
1170000000               -0.482340623090489       0.71985261040041
1200000000               -0.4044557627191983      0.7647032895039514
1230000000               -0.32251442912576866     0.8011646250194414
1260000000               -0.23741607762112038     0.8288842998982862
1290000000               -0.15008889927284275     0.8476060249443829
1320000000               -0.06147960036409011     0.8571716175299999
1350000000               0.02745692517101013      0.8575219946845096
1380000000               0.11576791527991404      0.8486970833956152
1410000000               0.20251293850122976      0.8308346631234944
1440000000               0.2867738625858495       0.804168167048533
1470000000               0.3676644882653044       0.7690234795520902
1500000000               0.4443397491768238       0.7258147776033864
1530000000               0.5160043853729043       0.6750394731505776
1560000000               0.5819210053043307       0.6172723221753555
1590000000               0.6414174593300217       0.5531587735460144
1620000000               0.6938934563004733       0.48340763758014504
1650000000               0.7388263640956438       0.40878315974126206
1680000000               0.775776144471993        0.33009658956476173
1710000000               0.8043893824172973       0.2481973385118561
1740000000               0.8244023802951731       0.16396382305749108
1770000000               0.835643297267589        0.07829409085067626
1800000000               0.8380333247851504       -0.007903671705148644
1830000000               0.8315868992539113       -0.09372065255357545
1860000000               0.8164109633483346       -0.17825685187536608
1890000000               0.7927032976708024       -0.26063035141568336
1920000000               0.7607499545746912       -0.33998632695599346
1950000000               0.7209218356975751       -0.41550572146738907
1980000000               0.6736704636859294       -0.4864135055547556
2010000000               0.6195230060328065       -0.5519864630374175
2040000000               0.5590766130868982       -0.6115604551134491
2070000000               0.4929921306827401       -0.664537135482349
2100000000               0.42198723546297395      -0.7103901112461766
2130000000               0.34682901109099706      -0.7486705653229145
2.16E9                   0.2683259284726905       -0.7790123638987744
2.19E9                   0.18731910892951725      -0.8011366430359722
2.22E9                   0.10467265231750851      -0.8148557609405496
2.25E9                   0.021262763303191434     -0.8200762715380959
2.28E9                   -0.06203445773867671     -0.8168002188621399
2.31E9                   -0.1443561967866774      -0.8051237144598078
2.34E9                   -0.22486580609619963     -0.7852318263330447
2.37E9                   -0.3027631737160221      -0.7573897665943891
2.4E9                    -0.3772903924438971      -0.7219322170062394
2.43E9                   -0.44773232892062603     -0.6792542350143864
2.46E9                   -0.5134145642105262      -0.6298067760280327
2.49E9                   -0.5737028126976668      -0.5740970844119854
2.52E9                   -0.6280066978155651      -0.5126911367629602
2.55E9                   -0.675787773650872       -0.44621445836152285
2.58E9                   -0.7165694686777         -0.375349180664655
2.61E9                   -0.7499464060174242      -0.3008273672636337
2.64E9                   -0.7755916188966756      -0.22342187160079272
2.67E9                   -0.7932613298076859      -0.14393610565357945
2.7E9                    -0.8027976059587378      -0.06319365858735114
2.73E9                   -0.8041293688859303      0.017971774618864077
2.76E9                   -0.7972721579039305      0.09872600412604925
2.79E9                   -0.7823269098343171      0.17824348582579733
2.82E9                   -0.7594779047479969      0.25571601885799733
2.85E9                   -0.7289899575202303      0.33036101792012573
2.88E9                   -0.6912049001722957      0.40142935614339514
2.91E9                   -0.6465373875289027      0.46821275349918373
2.94E9                   -0.595470058547938       0.530050671250092
2.97E9                   -0.5385480914486263      0.5863366646947442
3.0E9                    -0.4763731987889161      0.6365241435218282
3.03E9                   -0.4095971170686678      0.6801314901874598
3.06E9                   -0.33891465328551074     0.7167464907597955
3.09E9                   -0.2650563575796747      0.746030039009564
3.12E9                   -0.18878089610231807     0.7677190825788304
3.15E9                   -0.11086720152241902     0.7816287890371811
3.18E9                   -0.032106479370003174    0.7876539191595382
3.21E9                   0.04670585278216173      0.7857694036108972
3.24E9                   0.12477821965174095      0.7760301267271302
3.27E9                   0.20133086666970146      0.7585699262327752
3.3E9                    0.2756036972812623       0.7335998202313164
3.33E9                   0.3468639062907604       0.7014054728289612
3.36E9                   0.41441334573325933      0.6623439083953482
3.39E9                   0.47759555504625395      0.6168394834593487
3.42E9                   0.5358023784283897       0.5653791269463001
3.45E9                   0.5884800803353832       0.5085068663450272
3.48E9                   0.6351348573220612       0.4468176718180492
3.51E9                   0.6753376348272543       0.38095067336131616
3.54E9                   0.7087280357177712       0.3115818372986646
3.57E9                   0.7350174182521535       0.23941622407025998
3.6E9                    0.7539909073782383       0.16517998315563043
3.63E9                   0.7655083837114831       0.08961226517231737
3.66E9                   0.7695044435804459       0.013457239327418866
3.69E9                   0.7659873924406523       -0.06254360539551602
3.72E9                   0.7550373755758436       -0.13765872118718217
3.75E9                   0.7368037817245998       -0.21117320290533398
3.78E9                   0.7115020796752852       -0.28239484569131423
3.81E9                   0.6794102674048447       -0.3506595185997435
3.84E9                   0.6408651239548683       -0.4153358714106962
3.87E9                   0.5962584428903561       -0.4758294633637073
3.9E9                    0.5460333777640412       -0.5315864759554844
3.93E9                   0.49068093974545396      -0.5820972219462449
3.96E9                   0.4307365711917408       -0.6268996613108465
3.99E9                   0.3667766110073437       -0.6655830686352564
4.02E9                   0.299414406851108        -0.697791877725012
4.05E9                   0.2292958395273626       -0.7232295931448987
4.08E9                   0.1570941037637443       -0.7416625477219807
4.11E9                   0.08350371026206034      -0.7529232315095551
4.14E9                   0.009233798633891333     -0.7569129307818034
4.17E9                   -0.06499905378403951     -0.75360348288801
4.2E9                    -0.13847829524856597     -0.74303804836144
4.23E9                   -0.21049490664151344     -0.7253308968865703
4.26E9                   -0.2803547661306955      -0.7006662755588111
4.29E9                   -0.3473857466405469      -0.6692964640473796
4.32E9                   -0.41094448027556973     -0.6315391216296276
4.35E9                   -0.4704227638339992      -0.5877740060842234
4.38E9                   -0.525253593546636       -0.5384391102447373
4.41E9                   -0.5749168079455028      -0.4840262342927437
4.44E9                   -0.6189442953448702      -0.42507600044033017
4.47E9                   -0.6569246987922589      -0.36217232344503647
4.5E9                    -0.6885075356841629      -0.29593637125361455
4.53E9                   -0.7134066463015813      -0.22702007793591727
4.56E9                   -0.7314028959075812      -0.15609929929007124
4.59E9                   -0.7423460773134392      -0.08386672434804887
4.62E9                   -0.746155991973571       -0.01102466917339244
4.65E9                   -0.7428227232381177      0.06172212128383819
4.68E9                   -0.7324061483761921      0.1336735539254947
4.71E9                   -0.7150347574868964      0.20414107213401952
4.74E9                   -0.6909038495278965      0.27245430235722656
4.77E9                   -0.6602731564324028      0.3379674509061825
4.8E9                    -0.623463912912458       0.4000654497111123
4.83E9                   -0.5808553571596222      0.45816983463827077
4.86E9                   -0.5328806326789047      0.5117443043195843
4.89E9                   -0.48002207343901343     0.5602998660822438
4.92E9                   -0.4228058920207001      0.6033994454106424
4.95E9                   -0.36179634266104355     0.6406618289178381
4.98E9                   -0.2975894835179935      0.6717648318789852
5.01E9                   -0.23080670164631256     0.6964476265859935
5.04E9                   -0.16208818020417565     0.7145122286292577
5.07E9                   -0.09208647410184377     0.7258242030743567
5.1E9                    -0.021460316765926992    0.7303127066340015
5.13E9                   0.04913128706960741      0.7279700092528714
5.16E9                   0.11903470246003406      0.7188506256926409
5.19E9                   0.1876071156911502       0.7030701329724218
5.22E9                   0.2542218846449664       0.6808036694921207
5.25E9                   0.31827383392324865      0.6522840402260899
5.28E9                   0.3791844586411564       0.6177993260641186
5.31E9                   0.436406919660797        0.5776899316796937
5.34E9                   0.4894306754672926       0.5323450898755042
5.37E9                   0.5377856228155719       0.48219892950223575
5.4E9                    0.5810456959762084       0.4277262649445033
5.43E9                   0.6188319647058222       0.3694382563095745
5.46E9                   0.6508153345181832       0.3078780296924517
5.49E9                   0.676718967649359        0.24361626556021473
5.52E9                   0.6963205106878441       0.1772466921206323
5.55E9                   0.7094541519943555       0.10938138056351648
5.58E9                   0.7160124599667494       0.04064573726096693
5.61E9                   0.7159478897602128       -0.028326878810407755
5.64E9                   0.7092738042500315       -0.09690092461675928
5.67E9                   0.696064845050687        -0.16444476143211106
5.7E9                    0.6764565194970239       -0.2303369176132296
5.73E9                   0.6506439410553281       -0.2939723215603432
5.76E9                   0.6188797598156737       -0.35476828769422614
5.79E9                   0.5814714135323396       -0.4121700855912915
5.82E9                   0.5387778777016061       -0.4656560173234676
5.85E9                   0.4912060724801995       -0.5147420294046319
5.88E9                   0.43920700829189435      -0.5589859459139032
5.91E9                   0.3832716635687913       -0.597991404900701
5.94E9                   0.32392653122476855      -0.6314115241903064
5.97E9                   0.26172876444728566      -0.6589522510554038
6.0E9                    0.19726088803737607      -0.6803752959713087
