% Model:              three_layers reality at 0.1mm.mph
% Version:            COMSOL 5.6.0.280
% Date:               Feb 26 2022, 21:23
% Table:              表格 1 - 全局计算 1
% freq (Hz)              real(emw.S11) (1)        imag(emw.S11) (1)
300000000                0.5717057267167761       -0.7630464419477075
330000000                0.499422033845811        -0.8111164977012131
360000000                0.4232377934696729       -0.8524343380973582
390000000                0.3437612811394424       -0.8866870708097263
420000000                0.2616289854830807       -0.9136143297853171
450000000                0.17750066328130887      -0.9330114789683441
480000000                0.0920541094897974       -0.9447322123084263
510000000                0.0059796960407956234    -0.9486905591514964
540000000                -0.08002527254578205     -0.9448623007670565
570000000                -0.1652623319518874      -0.9332857985721423
600000000                -0.24903770935339004     -0.9140622343535386
630000000                -0.3306681969651747      -0.8873552628633364
660000000                -0.4094869947891262      -0.853390079301332
690000000                -0.4848494654994966      -0.8124519074783314
720000000                -0.5561387451982048      -0.7648839186682669
750000000                -0.6227711540625828      -0.7110845956444064
780000000                -0.6842013498727936      -0.6515045625169775
810000000                -0.7399271705608199      -0.5866429059546073
840000000                -0.7894941126298326      -0.5170430198941514
870000000                -0.8324993962279174      -0.44328801118562744
900000000                -0.8685955708793722      -0.3659957096131623
930000000                -0.8974936208839817      -0.28581333067511355
960000000                -0.9189655344370098      -0.20341184468841145
990000000                -0.9328463069722126      -0.11948010915580842
1020000000               -0.9390353554530156      -0.03471882574420705
1050000000               -0.9374973277827616      0.050165615606590865
1080000000               -0.9282622986272395      0.1344673401863102
1110000000               -0.9114253507030917      0.21748717452651478
1140000000               -0.8871455481185788      0.2985387500349108
1170000000               -0.8556443157511616      0.376954461014811
1200000000               -0.8172032459239134      0.45209121565050436
1230000000               -0.7721613604079948      0.5233359223993003
1260000000               -0.7209118617341481      0.590110658381693
1290000000               -0.6638984137813905      0.6518774704953021
1320000000               -0.6016109959688554      0.7081427662211839
1350000000               -0.5345813795761193      0.7584612565706682
1380000000               -0.46337827785509406     0.8024394198532665
1410000000               -0.38860222369777253     0.8397384616045923
1440000000               -0.3108802300017822      0.8700767524033213
1470000000               -0.2308602885587929      0.8932317317299469
1500000000               -0.1492057625578438      0.9090412724710364
1530000000               -0.06658972730315381     0.9174045064058144
1560000000               0.01631068857981095      0.9182821168878782
1590000000               0.09881991093613181      0.9116961098874019
1620000000               0.180269429737011        0.897729079333667
1650000000               0.2600031659800783       0.8765229867260459
1680000000               0.33738265548757734      0.8482774785340887
1710000000               0.4117920121534997       0.8132477678949178
1740000000               0.4826426375728543       0.771742109472579
1770000000               0.5493776474769249       0.7241188982850107
1800000000               0.6114759893554798       0.670783424602738
1830000000               0.6684562290482031       0.6121843181855899
1860000000               0.7198799882273733       0.5488097152462158
1890000000               0.7653550172293159       0.4811831824114111
1920000000               0.8045378918591034       0.4098594311728812
1950000000               0.8371363252971694       0.3354198564816325
1980000000               0.8629110896022237       0.2584679322542834
2010000000               0.8816775442823683       0.1796244955973129
2040000000               0.8933067723843          0.09952295003695999
2070000000               0.897726327570392        0.018804415501617818
2100000000               0.8949205980226367       -0.06188715096991331
2130000000               0.8849307941396287       -0.14190984541185425
2.16E9                   0.8678545647764975       -0.22062870798146728
2.19E9                   0.8438452379953291       -0.2974206134468753
2.22E9                   0.8131106629357028       -0.3716791657033879
2.25E9                   0.7759115973684108       -0.442819592561036
2.28E9                   0.7325595494054046       -0.5102835972204932
2.31E9                   0.6834139709277949       -0.5735440390076058
2.34E9                   0.6288787683936988       -0.6321092035011455
2.37E9                   0.5693982792906649       -0.6855263667099698
2.4E9                    0.5054530963582196       -0.7333844815984398
2.43E9                   0.4375562056250855       -0.7753161472783594
2.46E9                   0.36624966093019257      -0.8109993539100302
2.49E9                   0.2921015604282484       -0.8401595105530464
2.52E9                   0.21570279583274188      -0.8625718999023624
2.55E9                   0.1376631473245963       -0.8780642755923638
2.58E9                   0.05860664265167444      -0.8865191542823692
2.61E9                   -0.020833620202254367    -0.8878754786346547
2.64E9                   -0.1000209095438029      -0.8821295431182947
2.67E9                   -0.17832034111045375     -0.8693352224939979
2.7E9                    -0.25510428435754573     -0.8496035917320857
2.73E9                   -0.329757640061499       -0.8231020155841476
2.76E9                   -0.40168296518343577     -0.7900527587326324
2.79E9                   -0.47030542642544015     -0.7507311451853798
2.82E9                   -0.5350775598114735      -0.7054632835281538
2.85E9                   -0.5954838069382518      -0.6546233711621773
2.88E9                   -0.6510447937823446      -0.5986305921286895
2.91E9                   -0.7013213149728678      -0.5379456274276175
2.94E9                   -0.7459179859148618      -0.4730668018526637
2.97E9                   -0.7844865260744293      -0.40452589692785346
3.0E9                    -0.8167286392476414      -0.3328836645892789
3.03E9                   -0.8423984600555635      -0.2587250809901566
3.06E9                   -0.8613045401654251      -0.18265438404805046
3.09E9                   -0.8733113528475042      -0.10528994150388722
3.12E9                   -0.878340299888773       -0.02725899905890998
3.15E9                   -0.8763702108228822      0.050807640147505495
3.18E9                   -0.8674373305131517      0.12828095282795685
3.21E9                   -0.8516347971250774      0.20453899780069615
3.24E9                   -0.8291116182661696      0.27897213254751424
3.27E9                   -0.800071158304461       0.35098809534813025
3.3E9                    -0.7647691544948847      0.42001690650435847
3.33E9                   -0.7235112833383577      0.4855155451801698
3.36E9                   -0.6766503020513288      0.5469723604778394
3.39E9                   -0.6245827927761058      0.6039111782521288
3.42E9                   -0.5677455400948718      0.6558950668371542
3.45E9                   -0.5066115756161992      0.7025297266456412
3.48E9                   -0.44168592722458666     0.7434664703397089
3.51E9                   -0.37350111547875103     0.7784047624101993
3.54E9                   -0.30261244547383737     0.8070942904918349
3.57E9                   -0.2295931484265525      0.8293365463516423
3.6E9                    -0.155029433004205       0.844985902428261
3.63E9                   -0.07951550959254644     0.8539501803502608
3.66E9                   -0.003648651281709903    0.8561907195397431
3.69E9                   0.071975647889343        0.8517219657008891
3.72E9                   0.1467683627922769       0.8406106091512783
3.75E9                   0.22015142843163762      0.8229743112247179
3.78E9                   0.29156199481444656      0.7989800635967884
3.81E9                   0.36045641837058595      0.7688422307836675
3.84E9                   0.4263139764253053       0.7328203291123023
3.87E9                   0.4886403067498222       0.6912165939808983
3.9E9                    0.5469705905409171       0.64437337815089
3.93E9                   0.6008725079936568       0.5926704069341112
3.96E9                   0.6499489969862666       0.536521894426641
3.99E9                   0.6938408344148933       0.476373505142122
4.02E9                   0.7322290394806835       0.41269913444086354
4.05E9                   0.7648370751149227       0.3459974830369116
4.08E9                   0.7914328055015795       0.2767884148304446
4.11E9                   0.8118301596272375       0.20560910827445597
4.14E9                   0.8258904543838423       0.13301003270584405
4.17E9                   0.8335233434425835       0.059550796975592804
4.2E9                    0.8346873754523273       -0.014204074779699028
4.23E9                   0.8293901622398941       -0.08768938658709002
4.26E9                   0.817688170690591        -0.16034348770246368
4.29E9                   0.7996861587653528       -0.23161242866801582
4.32E9                   0.7755362764457531       -0.30095403304820817
4.35E9                   0.7454368479864066       -0.36784186896868865
4.38E9                   0.7096308453897685       -0.43176910764575926
4.41E9                   0.6684040574644314       -0.4922522543402197
4.44E9                   0.6220829559666573       -0.5488347327659371
4.47E9                   0.5710322611997993       -0.6010902982747203
4.5E9                    0.51565221305399         -0.6486262509206258
4.53E9                   0.4563755594218426       -0.6910864166972729
4.56E9                   0.3936642804797636       -0.7281538653492318
4.59E9                   0.32800607400618315      -0.759553335414608
4.62E9                   0.25991063243115703      -0.7850533419352831
4.65E9                   0.18990574574858884      -0.8044679488926166
4.68E9                   0.11853326499122457      -0.8176581957255401
4.71E9                   0.04634495760389008      -0.8245331737101078
4.74E9                   -0.026101719062744524    -0.8250507509164505
4.77E9                   -0.09824790577902434     -0.8192179430797003
4.8E9                    -0.16953767278444387     -0.8070909222248925
4.83E9                   -0.2394223733968901      -0.7887746481651882
4.86E9                   -0.30736499015038865     -0.7644221038099546
4.89E9                   -0.3728444321035381      -0.7342331166439102
4.92E9                   -0.43535973083630797     -0.6984527569067215
4.95E9                   -0.4944340756472596      -0.657369316645037
4.98E9                   -0.5496186279317604      -0.6113118900843685
5.01E9                   -0.6004960608150898      -0.5606475917870453
5.04E9                   -0.6466837827146741      -0.5057784613695752
5.07E9                   -0.6878368202323468      -0.447138109729763
5.1E9                    -0.723650353560852       -0.3851881597435619
5.13E9                   -0.7538619119676361      -0.3204145237190886
5.16E9                   -0.7782532425817221      -0.2533235436495526
5.19E9                   -0.7966518601016498      -0.18443800381931694
5.22E9                   -0.8089322691176344      -0.11429301734409764
5.25E9                   -0.815016832274454       -0.043431793876241555
5.28E9                   -0.8148762466446027      0.027598685208343382
5.31E9                   -0.8085295955050317      0.09825203334841418
5.34E9                   -0.7960439634558315      0.16798679896820753
5.37E9                   -0.777533630905899       0.23627070969588712
5.4E9                    -0.7531588871922086      0.3025847663033274
5.43E9                   -0.7231245109505718      0.36642715653483504
5.46E9                   -0.6876779601613104      0.4273169819785057
5.49E9                   -0.6471072978954271      0.4847978042482932
5.52E9                   -0.6017388610817798      0.5384410174485524
5.55E9                   -0.5519346654905529      0.5878490442693715
5.58E9                   -0.49808953417461066     0.6326583376820752
5.61E9                   -0.4406279397233463      0.6725421536300876
5.64E9                   -0.3800005621855933      0.7072130461246474
5.67E9                   -0.3166805830939005      0.7364250280408784
5.7E9                    -0.2511597591838505      0.7599753422671421
5.73E9                   -0.18394434188698378     0.7777058016661665
5.76E9                   -0.1155509227879506      0.7895036821601539
5.79E9                   -0.04650228317844967     0.7953021847373812
5.82E9                   0.022676693897455816     0.7950805074822661
5.85E9                   0.09146302054837695      0.7888635770532354
5.88E9                   0.15933950749496084      0.776721477911684
5.91E9                   0.22579858279879872      0.7587685951107507
5.94E9                   0.2903460285763439       0.7351624654065572
5.97E9                   0.3525046220954273       0.7061023212247921
6.0E9                    0.41181765018769545      0.6718273144199002
