% Model:              three_layers reality at 0.1mm.mph
% Version:            COMSOL 5.6.0.280
% Date:               Feb 26 2022, 21:35
% Table:              表格 1 - 全局计算 1
% freq (Hz)              real(emw.S11) (1)        imag(emw.S11) (1)
300000000                0.5714040522345517       -0.762976110561367
330000000                0.4991195175705846       -0.81100346905467
360000000                0.42294121470321855      -0.8522789710517501
390000000                0.3434769504321983       -0.886490633388358
420000000                0.261362713750089        -0.9133788608187793
450000000                0.17725773770294176      -0.9327396754034187
480000000                0.09183927564831294      -0.9444273329233502
510000000                0.005797141655911275     -0.9483563402711467
540000000                -0.08017192998824019     -0.9445028794965673
570000000                -0.16537005644295777     -0.9329056413859189
600000000                -0.24910405392999133     -0.9136660691126974
630000000                -0.33069130864543655     -0.8869480133052887
660000000                -0.4094656156715686      -0.85297680133669
690000000                -0.48478293013970974     -0.812037727017613
720000000                -0.5560269739046498      -0.7644739708364618
750000000                -0.6226146416125842      -0.7106839656163775
780000000                -0.6840011497941676      -0.651118228094843
810000000                -0.7396848747106866      -0.5862756822757883
840000000                -0.7892118261632654      -0.5166995066819089
870000000                -0.8321797081535565      -0.44297254277896125
900000000                -0.8682415201823374      -0.3657123084470092
930000000                -0.8971086586369248      -0.28556566442234427
960000000                -0.9185534821486674      -0.20320318755859904
990000000                -0.9324113115633376      -0.11931330778176195
1020000000               -0.938581841324087       -0.03459626981868474
1050000000               -0.9370299464524781      0.0502420174954928
1080000000               -0.9277858764686313      0.13449617932992392
1110000000               -0.9109448353646341      0.217467555404821
1140000000               -0.886665954176296       0.2984702980087766
1170000000               -0.8551706702047508      0.3768373243239076
1200000000               -0.8167405341388989      0.45192606180546097
1230000000               -0.7717144730256078      0.5231239291553399
1260000000               -0.7204855432017321      0.5898534992892702
1290000000               -0.6634972129431522      0.651577295435009
1320000000               -0.6012392192978271      0.7078021771036457
1350000000               -0.534243047445618       0.7580832786026609
1380000000               -0.46307708427606137     0.8020274687464956
1410000000               -0.38834149990479133     0.8392963071249007
1440000000               -0.3106629121683766      0.8696084787455028
1470000000               -0.2306888898375853      0.8927416951918243
1500000000               -0.14908234981145885     0.908534056853509
1530000000               -0.06651590242562815     0.9168848767241254
1560000000               0.016333802453231884     0.9177549718125819
1590000000               0.09879167845319757      0.9111664334369252
1620000000               0.1801897074652283       0.8972018922844134
1650000000               0.2598723018780982       0.8760032981947337
1680000000               0.33720148363353586      0.8477702381684216
1710000000               0.41156184293805187      0.8127578191021562
1740000000               0.48236524354146015      0.7712741440571782
1770000000               0.5490552449170822       0.7236774128886627
1800000000               0.6111112158805728       0.6703726792826092
1830000000               0.6680521173748097       0.6118082974458473
1860000000               0.7194399362731879       0.5484720919193358
1890000000               0.7648827548696548       0.4808872846093478
1920000000               0.8040374444452077       0.4096082127316205
1950000000               0.8366119742195164       0.33521587121980106
1980000000               0.8623673300998331       0.25831331252485407
2010000000               0.8811190408305798       0.1795209355705305
2040000000               0.8927383120300245       0.09947169442634879
2070000000               0.8971527718058501       0.018806254455839645
2100000000               0.8943468341337625       -0.06183187985661737
2130000000               0.8843616874912645       -0.14180124698445107
2.16E9                   0.8672949143581928       -0.220467310468309
2.19E9                   0.8432997386693963       -0.2972073402031975
2.22E9                   0.8125838790010591       -0.3714152992030031
2.25E9                   0.7754079528251054       -0.44250673474596636
2.28E9                   0.7320833390405131       -0.5099236350640419
2.31E9                   0.6829693916353627       -0.5731391285434955
2.34E9                   0.628469960230682        -0.6316617876663221
2.37E9                   0.5690293531612455       -0.6850392358652793
2.4E9                    0.5051281180455461       -0.7328608676713412
2.43E9                   0.4372791144158102       -0.7747598198202857
2.46E9                   0.36602412824094516      -0.8104146743270253
2.49E9                   0.2919308236405465       -0.8395514138690743
2.52E9                   0.21558951329721676      -0.8619458048262747
2.55E9                   0.137609305731705        -0.8774259510808824
2.58E9                   0.05861352185034718      -0.8858745780351228
2.61E9                   -0.020765439000405908    -0.8872307124289794
2.64E9                   -0.09989151165973348     -0.8814906342954919
2.67E9                   -0.17813043806034268     -0.8687081296674898
2.7E9                    -0.25485517392659285     -0.8489941281241435
2.73E9                   -0.3294511700366585      -0.8225158032367313
2.76E9                   -0.40132150075945844     -0.7894951885576356
2.79E9                   -0.46989181980980776     -0.7502073398605701
2.82E9                   -0.5346151203880972      -0.7049780617872482
2.85E9                   -0.5949762705325159      -0.6541812130971616
2.88E9                   -0.6504962900347512      -0.5982356056977796
2.91E9                   -0.7007363322176888      -0.5376015166372898
2.94E9                   -0.7453013332588885      -0.47277683725208797
2.97E9                   -0.7838432926838221      -0.40429288900333726
3.0E9                    -0.8160641510558322      -0.33270994055879477
3.03E9                   -0.8417182341653912      -0.2586124655336092
3.06E9                   -0.8606142373945407      -0.18260418427055664
3.09E9                   -0.8726167288614282      -0.10530293641957436
3.12E9                   -0.8776471554001161      -0.02733543386076764
3.15E9                   -0.8756843413849901      0.050668055016354345
3.18E9                   -0.8667644764005225      0.12807903760868777
3.21E9                   -0.8509805938397923      0.2042760944039652
3.24E9                   -0.8284815482183888      0.27865009057286605
3.27E9                   -0.7994705042642409      0.35060925315957664
3.3E9                    -0.7642029553751062      0.419584067686772
3.33E9                   -0.7229842930257834      0.4850319503654539
3.36E9                   -0.6761669518614002      0.5464416551267942
3.39E9                   -0.62414715817853        0.6033373767925018
3.42E9                   -0.5673613122981844      0.6552825138230628
3.45E9                   -0.5062820384558289      0.701883055780118
3.48E9                   -0.4414139396584534      0.7427905623281847
3.51E9                   -0.3732890998614076      0.7777047027037295
3.54E9                   -0.3024623813754719      0.8063753281649051
3.57E9                   -0.22950657159650875     0.8286040552910525
3.6E9                    -0.15500743854383092     0.8442453460318868
3.63E9                   -0.07955875813870268     0.85320708067959
3.66E9                   -0.003757376435222959    0.8554506315712067
3.69E9                   0.07180163279177734      0.8509904567432556
3.72E9                   0.14652966087280817      0.839893242802825
3.75E9                   0.21984906046501945      0.8222766343100218
3.78E9                   0.29119740719623904      0.7983075935211682
3.81E9                   0.3600314985341367       0.7682004397735934
3.84E9                   0.42583107482139443      0.7322146212792057
3.87E9                   0.48810226266557         0.6906522712790992
3.9E9                    0.5463807570061502       0.6438555925312912
3.93E9                   0.6002347697617385       0.5922040982227488
3.96E9                   0.649267775517749        0.5361117162687131
3.99E9                   0.6931210752158887       0.47602374395626523
4.02E9                   0.731476179636622        0.4124136280533157
4.05E9                   0.7640569920038609       0.3457795457392998
4.08E9                   0.7906317501950242       0.27664077441778095
4.11E9                   0.8110146801189103       0.2055338583259091
4.14E9                   0.8250673140323738       0.13300860094166644
4.17E9                   0.8326994392117855       0.0596239284608979
4.2E9                    0.8338696590708488       -0.014056321987812748
4.23E9                   0.8285855658553605       -0.08746763613614035
4.26E9                   0.8169035373307576       -0.16004903233787143
4.29E9                   0.7989281771902917       -0.23124721197423864
4.32E9                   0.774811419766074        -0.3005206264127418
4.35E9                   0.7447513156347925       -0.36734344395675955
4.38E9                   0.7089905083954957       -0.4312094038062272
4.41E9                   0.6678144073184452       -0.4916355424422573
4.44E9                   0.621549057627055        -0.548165773592471
4.47E9                   0.5705587107248505       -0.6003742974907826
4.5E9                    0.5152431003557988       -0.6478688105476526
4.53E9                   0.4560344362850856       -0.690293484033718
4.56E9                   0.393394133882186        -0.7273316799951858
4.59E9                   0.3278093044978535       -0.7587083750403781
4.62E9                   0.25978903726437963      -0.784192267176829
4.65E9                   0.1898605064431582       -0.8035975475139501
4.68E9                   0.1185649390560009       -0.8167853259590045
4.71E9                   0.046453474645738346     -0.8236647064578474
4.74E9                   -0.025917056424704654    -0.8241935105794845
4.77E9                   -0.09798841517791673     -0.8183786470277159
4.8E9                    -0.16920527840156974     -0.8062761194805168
4.83E9                   -0.23901958412551114     -0.7879906585797263
4.86E9                   -0.3068948689252131      -0.7636749596836596
4.89E9                   -0.3723105564561288      -0.7335285092293163
4.92E9                   -0.43476614576820644     -0.6977959903154449
4.95E9                   -0.49378524098165794     -0.6567652712570884
4.98E9                   -0.5489193630708058      -0.6107649967448655
5.01E9                   -0.5997514903559076      -0.5601618167675667
5.04E9                   -0.6458992861524         -0.5053573006597095
5.07E9                   -0.687017988078816       -0.44678458998209725
5.1E9                    -0.7228029508043599      -0.3849048423689218
5.13E9                   -0.7529918479707579      -0.32020350889887217
5.16E9                   -0.7773665452275438      -0.25318647195280114
5.19E9                   -0.7957546513972672      -0.1843760549610207
5.22E9                   -0.8080307401842788      -0.11430690708480969
5.25E9                   -0.8141172171097003      -0.04352177087170153
5.28E9                   -0.8139847955993527      0.027432841350133564
5.31E9                   -0.8076525500913982      0.09801101311236182
5.34E9                   -0.7951875333759483      0.16767176499635464
5.37E9                   -0.7767039723403397      0.23588330256275747
5.4E9                    -0.7523620792798673      0.30212711595398095
5.43E9                   -0.7223665260373875      0.3659018992622414
5.46E9                   -0.6869646235565875      0.42672728012009176
5.49E9                   -0.6464442345035176      0.4841473635393091
5.52E9                   -0.6011314290139167      0.5377340958003494
5.55E9                   -0.551387879698024       0.5870904461490594
5.58E9                   -0.4976079856260577      0.631853389996681
5.61E9                   -0.4402157170195339      0.6716966617553457
5.64E9                   -0.37966118248214864     0.7063332317922688
5.67E9                   -0.31641693777333624     0.735517453545194
5.7E9                    -0.25097407705253966     0.7590468272180984
5.73E9                   -0.18383816948578657     0.7767633386846955
5.76E9                   -0.11552511865071313     0.7885543563458209
5.79E9                   -0.046557021446379215    0.7943530989353622
5.82E9                   0.022541914482390447     0.7941387123892951
5.85E9                   0.09124936400174698      0.7879360033337175
5.88E9                   0.15904878334477957      0.7758148675215382
5.91E9                   0.2254332211686304       0.7578894307101076
5.94E9                   0.28990904409617907      0.7343168992518452
5.97E9                   0.35199956407239114      0.7052961072034385
6.0E9                    0.41124853858468885      0.6710657481853144
