% Model:              three_layers reality at 0.1mm.mph
% Version:            COMSOL 5.6.0.280
% Date:               Feb 25 2022, 17:36
% Table:              表格 1 - 全局计算 1
% freq (Hz)              real(emw.S11) (1)        imag(emw.S11) (1)
300000000                0.5439602331876355       -0.7285040826869462
330000000                0.47540581098899043      -0.7734445065895407
360000000                0.4032706746999717       -0.8120738661503811
390000000                0.32811345168764383      -0.8440987123055399
420000000                0.2505212312864828       -0.8692762067511318
450000000                0.17110392643103475      -0.8874165741147956
480000000                0.0904887644019805       -0.8983850785885882
510000000                0.009314814502265279     -0.902103521714619
540000000                -0.07177248426622036     -0.8985512545985357
570000000                -0.152126800758656       -0.8877656969366954
600000000                -0.2311063805798236      -0.8698423561672842
630000000                -0.308079479664046       -0.8449343422090408
660000000                -0.3824297283855989      -0.8132513763411829
690000000                -0.45356138620087966     -0.7750582966616864
720000000                -0.5209044435085699      -0.7306730670956227
750000000                -0.5839195255940605      -0.680464301710818
780000000                -0.642102552658909       -0.624848321390727
810000000                -0.6949891104544912      -0.564285765027454
840000000                -0.742158487141969       -0.4992777829500568
870000000                -0.7832373342714771      -0.43036184551669054
900000000                -0.8179029130958502      -0.35810720450175054
930000000                -0.845885890887767       -0.28311004988260363
960000000                -0.8669726566658897      -0.2059884086402987
990000000                -0.8810071308779235      -0.12737683568158464
1020000000               -0.8878920491508832      -0.04792095012175031
1050000000               -0.8875897063620427      0.031728128134005495
1080000000               -0.8801221535085205      0.11091938426102399
1110000000               -0.8655708464922749      0.1890075004466918
1140000000               -0.8440757523341182      0.2653583763441122
1170000000               -0.815833924791286       0.3393545229056317
1200000000               -0.781097567601795       0.41040027546412655
1230000000               -0.7401716093693754      0.4779267753500637
1260000000               -0.6934108194667736      0.5413966725783406
1290000000               -0.6412164993563526      0.6003085059598607
1320000000               -0.5840327877427043      0.654200722024212
1350000000               -0.5223426216871937      0.7026552988561591
1380000000               -0.4566633986220945      0.7453009463597957
1410000000               -0.38754238613588465     0.7818158601185555
1440000000               -0.31555192803878224     0.8119300113933008
1470000000               -0.24128449548796693     0.8354269616509579
1500000000               -0.16534763218725176     0.8521451952739181
1530000000               -0.08835884171924242     0.8619789694740128
1560000000               -0.010940463869858343    0.8648786853327997
1590000000               0.06628541500871368      0.8608507884731076
1620000000               0.1427019749232299       0.8499572120628148
1650000000               0.21770255822972617      0.8323143785601618
1680000000               0.290695411620591        0.8080917798461513
1710000000               0.3611082398300912       0.777510158177479
1740000000               0.4283925402690361       0.7408393126649391
1770000000               0.4920276908667912       0.6983955578423857
1800000000               0.5515247667787809       0.650538862270363
1830000000               0.6064300647795524       0.5976696960846503
1860000000               0.6563283170346914       0.5402256172361873
1890000000               0.700845579186845        0.47867762626319915
1920000000               0.7396517801836329       0.41352631968558784
1950000000               0.772462923824569        0.3452978720680342
1980000000               0.799042934553641        0.2745398762618946
2010000000               0.8192051419584865       0.20181707122866396
2040000000               0.8328134005574349       0.12770698629739297
2070000000               0.839782843347485        0.0527955299194126
2100000000               0.8400802691297653       -0.022327449085479113
2130000000               0.8337241654157546       -0.09707260071509013
2.16E9                   0.8207843701823259       -0.1708554869336512
2.19E9                   0.8013813772810234       -0.24310094258893677
2.22E9                   0.7756852917202459       -0.313247359291155
2.25E9                   0.7439144424847595       -0.38075086763661736
2.28E9                   0.7063336616209718       -0.4450893949784691
2.31E9                   0.6632522391350172       -0.5057665770095447
2.34E9                   0.6150215631984985       -0.5623155032217199
2.37E9                   0.5620324536467649       -0.6143022779811106
2.4E9                    0.5047121935640597       -0.6613293791594996
2.43E9                   0.4435212583150559       -0.7030387938284313
2.46E9                   0.37894973521447695      -0.7391149020359353
2.49E9                   0.3115134249202942       -0.7692870620734278
2.52E9                   0.24174962644832         -0.7933318244546808
2.55E9                   0.17021264342958933      -0.8110746764000241
2.58E9                   0.09746911387962616      -0.8223912181413511
2.61E9                   0.024093336913306375     -0.8272077277237191
2.64E9                   -0.0493372071115914      -0.8255011882589672
2.67E9                   -0.12224602858644627     -0.8172989765537235
2.7E9                    -0.19406155012972023     -0.8026784429973562
2.73E9                   -0.26422098656670084     -0.7817664940838718
2.76E9                   -0.3321744016804769      -0.754739091446907
2.79E9                   -0.3973890227869932      -0.7218204494173541
2.82E9                   -0.4593537225890673      -0.6832817254033312
2.85E9                   -0.5175834845667389      -0.6394391084635012
2.88E9                   -0.5716236743216214      -0.5906513264946333
2.91E9                   -0.621053998177122       -0.5373166549414486
2.94E9                   -0.6654920896232798      -0.47986952054553306
2.97E9                   -0.7045967007290037      -0.418776778088309
3.0E9                    -0.7380704905161618      -0.35453371826684643
3.03E9                   -0.765662404336966       -0.2876598513672768
3.06E9                   -0.7871696364619517      -0.21869450472205443
3.09E9                   -0.8024391661031004      -0.1481922708696258
3.12E9                   -0.8113688571412168      -0.07671834458162972
3.15E9                   -0.8139081137386898      -0.004843788911547586
3.18E9                   -0.8100580872548204      0.06685922744148041
3.21E9                   -0.79987143419523        0.1378221782310056
3.24E9                   -0.7834516295364568      0.20748486950805578
3.27E9                   -0.7609518445551825      0.2753000280958522
3.3E9                    -0.7325734029335161      0.34073774678619406
3.33E9                   -0.698563833245231       0.4032897463010424
3.36E9                   -0.6592145399715922      0.46247341639224776
3.39E9                   -0.614858118840253       0.5178356012512558
3.42E9                   -0.5658653455432084      0.5689560975793821
3.45E9                   -0.5126418697298231      0.6154508371246123
3.48E9                   -0.4556246488215554      0.6569747290197393
3.51E9                   -0.3952781579491304      0.6932241415611758
3.54E9                   -0.3320904142429253      0.7239390068291937
3.57E9                   -0.2665688545247606      0.7489045361954652
3.6E9                    -0.1992361061158725      0.7679525390531831
3.63E9                   -0.13062569034106827     0.7809623416511193
3.66E9                   -0.061277697414092815    0.787861307345551
3.69E9                   0.008265530072071493     0.7886249635951823
3.72E9                   0.07746367006066138      0.7832767445746978
3.75E9                   0.1457826179287748       0.7718873609515031
3.78E9                   0.21269857745651388      0.7545738101590029
3.81E9                   0.2777020181381968       0.7314980415215936
3.84E9                   0.34030147226422547      0.7028652912405324
3.87E9                   0.40002714579092924      0.6689221030755179
3.9E9                    0.45643431654290456      0.6299540522716796
3.93E9                   0.5091064931211957       0.5862831931771527
3.96E9                   0.5576583082039962       0.5382652554281009
3.99E9                   0.6017381221917489       0.48628661900929804
4.02E9                   0.6410303179561496       0.43076110401545764
4.05E9                   0.6752572750599086       0.3721266149666151
4.08E9                   0.7041810214391518       0.31084168027482967
4.11E9                   0.7276045701297342       0.24738192381462412
4.14E9                   0.7453729554693163       0.1822364977085266
4.17E9                   0.7573739850831551       0.11590449565374328
4.2E9                    0.7635387204082588       0.04889135778746781
4.23E9                   0.763841691670389        -0.018294725842008128
4.26E9                   0.7583008466605755       -0.08514640461187195
4.29E9                   0.7469772296989575       -0.15116073588732648
4.32E9                   0.729974388862792        -0.21584271412560707
4.35E9                   0.7074375140879579       -0.2787087400370496
4.38E9                   0.6795523129473406       -0.33929001100951006
4.41E9                   0.6465436320068879       -0.39713581823273775
4.44E9                   0.6086738292649593       -0.4518167388485009
4.47E9                   0.5662408988422548       -0.5029277114996198
4.5E9                    0.5195763458648941       -0.5500909794757411
4.53E9                   0.4690428092138998       -0.5929588796986758
4.56E9                   0.4150314337109411       -0.6312164494087992
4.59E9                   0.3579590001360149       -0.664583818606368
4.62E9                   0.29826482987485825      -0.692818355623227
4.65E9                   0.23640748908482384      -0.7157165360434086
4.68E9                   0.1728613236366023       -0.7331155108203691
4.71E9                   0.10811285977472274      -0.7448943568117947
4.74E9                   0.04265710605644238      -0.7509750006414736
4.77E9                   -0.023006210201002554    -0.7513228133842598
4.8E9                    -0.0883764429817095      -0.7459468776548906
4.83E9                   -0.152955839492671       -0.7348999297056222
4.86E9                   -0.21625334226861118     -0.71827797764408
4.89E9                   -0.2777883597734695      -0.6962195943570646
4.92E9                   -0.3370944814091228      -0.6689048820439918
4.95E9                   -0.39372310868101845     -0.6365541057666744
4.98E9                   -0.4472469702585712      -0.5994259963918092
5.01E9                   -0.4972634856700122      -0.5578157282742899
5.04E9                   -0.5433979412784636      -0.512052583059261
5.07E9                   -0.5853064426948115      -0.4624973174039494
5.1E9                    -0.6226786101663895      -0.40953925870668845
5.13E9                   -0.6552399874800987      -0.3535931586829024
5.16E9                   -0.682754140739852       -0.29509583922351007
5.19E9                   -0.705024430545074       -0.2345026674304608
5.22E9                   -0.7218954485101059      -0.172283896247268
5.25E9                   -0.7332541148769819      -0.10892090352388664
5.28E9                   -0.7390304362785642      -0.044902357397917654
5.31E9                   -0.7391979212084439      0.01927966801102453
5.34E9                   -0.7337736470833346      0.08313360285280853
5.37E9                   -0.7228179700089993      0.14617228998037773
5.4E9                    -0.7064338692227214      0.20791685694222883
5.43E9                   -0.6847659236313928      0.2679005105912848
5.46E9                   -0.6579989266144053      0.3256722096425312
5.49E9                   -0.6263561552182169      0.38080017082136514
5.52E9                   -0.5900973190805308      0.43287516809725446
5.55E9                   -0.5495162218090591      0.4815135909959223
5.58E9                   -0.5049381725425587      0.5263602363821263
5.61E9                   -0.45671718754965274     0.5670908177125906
5.64E9                   -0.40523302014198087     0.6034141857006383
5.67E9                   -0.35088805142350055     0.6350742626617969
5.7E9                    -0.2941040651127089      0.6618516969484931
5.73E9                   -0.23531891995077353     0.6835652413732639
5.76E9                   -0.1749831278413396      0.7000728506965075
5.79E9                   -0.11355634908697176     0.7112724822177123
5.82E9                   -0.051503827960336146    0.7171025772104326
5.85E9                   0.010707193019785422     0.7175422047784438
5.88E9                   0.07261103141351626      0.7126108635609483
5.91E9                   0.13374704710371185      0.7023679546344423
5.94E9                   0.193663009738488        0.6869119531588107
5.97E9                   0.2519183274091937       0.6663793120491824
6.0E9                    0.3080871257408063       0.6409431283433936
