% Model:              three_layers reality at 0.1mm.mph
% Version:            COMSOL 5.6.0.280
% Date:               Feb 22 2022, 20:00
% Table:              表格 1 - 全局计算 1
% freq (Hz)              real(emw.S11) (1)        imag(emw.S11) (1)
300000000                0.4047232104993018       -0.77000364050502
330000000                0.3214199830464637       -0.8055882556030606
360000000                0.2352088040428603       -0.8323902121544813
390000000                0.14698397564755636      -0.8501682608344736
420000000                0.05766521578489652      -0.8587752195518903
450000000                -0.03181399626742678     -0.8581599059904641
480000000                -0.12051763868271373     -0.8483678985216919
510000000                -0.20751801994314417     -0.8295411518280729
540000000                -0.2919063114148262      -0.8019164958331552
570000000                -0.37280270145657896     -0.7658230519218611
600000000                -0.4493661072883113      -0.7216786078559834
630000000                -0.5208033689111476      -0.6699850014621394
660000000                -0.586377844722809       -0.6113225720904368
690000000                -0.6454173280857136      -0.5463437480051248
720000000                -0.6973212073888981      -0.47576584678250405
750000000                -0.7415667981364419      -0.40036317397127424
780000000                -0.7777147831831797      -0.320958512695819
810000000                -0.80541370619336        -0.23841410361182175
840000000                -0.824403473859065       -0.15362221977662294
870000000                -0.8345178332950074      -0.06749544539498932
900000000                -0.8356858028302977      0.019043229965794287
930000000                -0.8279320463573794      0.10507038834747191
960000000                -0.8113761936921563      0.18967211830861286
990000000                -0.7862311215458981      0.27195379585897606
1020000000               -0.7528002216540239      0.35104960199126345
1050000000               -0.7114736941717599      0.42613167167835153
1080000000               -0.6627239153778401      0.49641877439791604
1110000000               -0.6070999390212939      0.5611844326640547
1140000000               -0.5452211999451402      0.6197643927664697
1170000000               -0.47777049707516195     0.6715633702809789
1200000000               -0.4054863401622133      0.7160610022511368
1230000000               -0.32915475076835393     0.75281694799446
1260000000               -0.24960061303469533     0.7814750908362792
1290000000               -0.16767867341243203     0.8017668039995294
1320000000               -0.08426429100840274     0.813513254906718
1350000000               -2.440414630589416E-4    0.8166267332157665
1380000000               0.08349372284845896      0.8111109989650004
1410000000               0.16606825442920548      0.7970606579429531
1440000000               0.24661563481297685      0.7746595818957159
1470000000               0.32429774507908926      0.7441784011485187
1500000000               0.3983108909124147       0.7059711066856829
1530000000               0.46789399569175744      0.6604708075106316
1560000000               0.5323362808348583       0.608184697277427
1590000000               0.5909843595071645       0.5496882914742385
1620000000               0.6432486769722318       0.4856190030031054
1650000000               0.6886092386358502       0.41666912975276094
1680000000               0.7266205751592981       0.34357833248553815
1710000000               0.7569159024560108       0.26712568546679216
1740000000               0.7792104433553046       0.18812138520772909
1770000000               0.7933038866995986       0.10739820488044859
1800000000               0.7990819689072453       0.025802783143959035
1830000000               0.7965171722995188       -0.055813163581801745
1860000000               0.7856685438968214       -0.13660161732960371
1890000000               0.7666806477021343       -0.21572693707239035
1920000000               0.7397816727066605       -0.2923743566823967
1950000000               0.7052807277431207       -0.36575822451471734
1980000000               0.66356436252021         -0.43512991366934806
2010000000               0.6150923609089389       -0.49978534148595744
2040000000               0.560392856627877        -0.5590720491418599
2070000000               0.5000568202761547       -0.6123958078459935
2100000000               0.4347319566894314       -0.6592267355582753
2130000000               0.36511602707662427      -0.6991049238159948
2.16E9                   0.29194956555459833      -0.7316455777410183
2.19E9                   0.2160078933036708       -0.756543643121496
2.22E9                   0.1380922604542132       -0.773577800280917
2.25E9                   0.05901991997797751      -0.782613510640273
2.28E9                   -0.02038693023823797     -0.7836045147921611
2.31E9                   -0.09931296940664823     -0.7765919299698063
2.34E9                   -0.17696121813661705     -0.7617002019045087
2.37E9                   -0.2525623019266856      -0.7391300141411918
2.4E9                    -0.3253797879396572      -0.7091497936472491
2.43E9                   -0.39471144237021216     -0.6720886832323361
2.46E9                   -0.45988861356481403     -0.62833335645255
2.49E9                   -0.5202771489186353      -0.5783286529257271
2.52E9                   -0.5752820652169447      -0.5225795341451059
2.55E9                   -0.6243556628438243      -0.46165130936351484
2.58E9                   -0.6670070215954839      -0.3961664883530098
2.61E9                   -0.7028107498138791      -0.3267984253116556
2.64E9                   -0.7314138107150439      -0.2542628882343884
2.67E9                   -0.7525402120278546      -0.17930872298325332
2.7E9                    -0.7659938569018299      -0.10270838133875893
2.73E9                   -0.7716599657144473      -0.02524867664705593
2.76E9                   -0.7695053972674348      0.0522781212450421
2.79E9                   -0.7595780769451599      0.12908284796464695
2.82E9                   -0.7420056447909389      0.2043876833153414
2.85E9                   -0.7169933800808312      0.2774340738592244
2.88E9                   -0.6848214325875944      0.34749032535077723
2.91E9                   -0.6458413829990465      0.41385883231087606
2.94E9                   -0.6004721570991884      0.47588289950187906
2.97E9                   -0.5491953250944789      0.5329531032000133
3.0E9                    -0.4925498258971476      0.5845131378942712
3.03E9                   -0.4311261646286657      0.6300650955087521
3.06E9                   -0.3655601395637814      0.6691741280594705
3.09E9                   -0.29652616132356124     0.701472450773877
3.12E9                   -0.22473023255662083     0.7266626499764159
3.15E9                   -0.15090265975463152     0.7445202685444079
3.18E9                   -0.0757905705107202      0.7548956504053463
3.21E9                   -1.503090372265703E-4    0.7577150339444799
3.24E9                   0.07526021927949511      0.7529808913302373
3.27E9                   0.14968918671812367      0.7407715160593775
3.3E9                    0.2223984007822077       0.7212398640521567
3.33E9                   0.29267071757595925      0.6946116547005081
3.36E9                   0.3598172471616625       0.6611827381475519
3.39E9                   0.4231842829859314       0.6213157353504926
3.42E9                   0.4821598798682935       0.575435960031488
3.45E9                   0.5361799951322006       0.524026638561833
3.48E9                   0.5847340969664842       0.46762345705697195
3.51E9                   0.6273701363205814       0.40680848554590504
3.54E9                   0.6636987777257496       0.34220355626628035
3.57E9                   0.6933967941209875       0.2744632041820461
3.6E9                    0.7162095535994581       0.20426730708099528
3.63E9                   0.7319525608109778       0.1323135836901671
3.66E9                   0.7405120577277838       0.0593101157550589
3.69E9                   0.741844730505288        -0.014031947780539287
3.72E9                   0.7359766049393088       -0.08700536606762177
3.75E9                   0.723001240708181        -0.15891334961782652
3.78E9                   0.7030773562911996       -0.22907559076627335
3.81E9                   0.6764260343051746       -0.29683373772262617
3.84E9                   0.6433276674174273       -0.3615563170296319
3.87E9                   0.604118796712908        -0.4226431702747835
3.9E9                    0.5591889543744193       -0.47952953383372077
3.93E9                   0.50897754656022         -0.5316899336212382
3.96E9                   0.4539707138628082       -0.5786420662397808
3.99E9                   0.3946980151245798       -0.6199507820123235
4.02E9                   0.33172872885390403      -0.6552321844886112
4.05E9                   0.26566757566697846      -0.6841577451140952
4.08E9                   0.19714973288626805      -0.7064582374760102
4.11E9                   0.12683511611644516      -0.7219272499377334
4.14E9                   0.05540200986584836      -0.7304240469247301
4.17E9                   -0.016459788466020343    -0.7318756070420549
4.2E9                    -0.08805610604950048     -0.7262777484980695
4.23E9                   -0.15869561077657526     -0.7136953344940994
4.26E9                   -0.22769693917435704     -0.6942616135299332
4.29E9                   -0.29439562124069146     -0.6681767814086443
4.32E9                   -0.3581507377756021      -0.6357058528568961
4.35E9                   -0.41835127995207694     -0.5971759100338818
4.38E9                   -0.47442219287568677     -0.5529727665963944
4.41E9                   -0.5258300769145244      -0.5035370628731672
4.44E9                   -0.5720885013472157      -0.4493597985664665
4.47E9                   -0.6127628645533856      -0.39097731591301055
4.5E9                    -0.6474747215432073      -0.32896576490701146
4.53E9                   -0.6759054971182155      -0.26393510700598516
4.56E9                   -0.6977995121239371      -0.19652273878422136
4.59E9                   -0.7129662696318398      -0.12738683770414952
4.62E9                   -0.7212819752091584      -0.05719954437060304
4.65E9                   -0.7226902967152289      0.013359903958713466
4.68E9                   -0.7172023983720998      0.08361198718285023
4.71E9                   -0.7048963034259782      0.15288358795250842
4.74E9                   -0.6859156426356431      0.22051450490756067
4.77E9                   -0.6604678302156017      0.28586377546985176
4.8E9                    -0.6288216807941451      0.3483157994195051
4.83E9                   -0.5913044535356963      0.4072862414317926
4.86E9                   -0.548298296905614       0.4622276601271561
4.89E9                   -0.500236078278326       0.5126347750555527
4.92E9                   -0.4475966154784586      0.558049256608459
4.95E9                   -0.3908993733728         0.5980639177101608
4.98E9                   -0.33069873517346465     0.6323262040179387
5.01E9                   -0.2675779934848457      0.6605409184161442
5.04E9                   -0.2021432216355076      0.6824721686563331
5.07E9                   -0.1350171758799558      0.697944584127574
5.1E9                    -0.06683334256145149     0.706843896094924
5.13E9                   0.0017698137107815981    0.709117001255177
5.16E9                   0.07015440989397402      0.7047716191985812
5.19E9                   0.13768857114347455      0.6938756082827671
5.22E9                   0.20375179481457054      0.6765559356038158
5.25E9                   0.267740286043078        0.6529972344716231
5.28E9                   0.32907222813412496      0.6234398592353458
5.31E9                   0.3871928794600168       0.5881773784413858
5.34E9                   0.44157935465415205      0.5475535203743226
5.37E9                   0.4917449700666412       0.5019586640853725
5.4E9                    0.5372431008704884       0.45182601542655765
5.43E9                   0.5776705766990581       0.39762760195248803
5.46E9                   0.6126706996047482       0.3398701698733096
5.49E9                   0.6419359830319842       0.27909099567538465
5.52E9                   0.665210683740654        0.21585356254616697
5.55E9                   0.6822931448054135       0.1507430157744544
5.58E9                   0.6930379050598092       0.08436130869139508
5.61E9                   0.6973574745423528       0.017321978774714152
5.64E9                   0.6952236380252619       -0.04975545391337221
5.67E9                   0.6866681388903402       -0.11625140597433987
5.7E9                    0.6717826208817815       -0.18155233717561672
5.73E9                   0.6507177674442005       -0.2450568606442629
5.76E9                   0.623681665745464        -0.30618165964238253
5.79E9                   0.5909375063719917       -0.3643670535717167
5.82E9                   0.5528007743051525       -0.4190821382770623
5.85E9                   0.5096360711094173       -0.46982951531894346
5.88E9                   0.4618536431238404       -0.5161496794175439
5.91E9                   0.40990561309767415      -0.557625131195885
5.94E9                   0.35428186200722717      -0.5938842344162634
5.97E9                   0.29550550152958194      -0.6246047741639843
6.0E9                    0.23412790833598046      -0.6495171242033208
