% Model:              three_layers reality at 0.1mm.mph
% Version:            COMSOL 5.6.0.280
% Date:               Mar 2 2022, 15:29
% Table:              表格 1 - 全局计算 1
% freq (Hz)              real(emw.S11) (1)        imag(emw.S11) (1)
300000000                0.6185996370753856       -0.7511139428928847
330000000                0.5507799196374051       -0.8016666910724839
360000000                0.4789485907808308       -0.8461683958942182
390000000                0.4036290407013223       -0.8843006822742228
420000000                0.32537317354574946      -0.915789556558003
450000000                0.24475683850268323      -0.9404084352031341
480000000                0.16237516408007693      -0.9579805159082175
510000000                0.07883781614299129      -0.9683805810377941
540000000                -0.005235802873556673    -0.9715362862234799
570000000                -0.08922139024939853     -0.9674289649071004
600000000                -0.17249458860896338     -0.9560939682789406
630000000                -0.2544358131583492      -0.9376205542702144
660000000                -0.33443502934082736     -0.9121513366512478
690000000                -0.41189644914843176     -0.8798813048502976
720000000                -0.48624311278607757     -0.8410564262799529
750000000                -0.5569213231209366      -0.7959718441224699
780000000                -0.6234048989886023      -0.7449696865618516
810000000                -0.6851992164758895      -0.688436504512685
840000000                -0.7418450053438617      -0.6268003595823437
870000000                -0.7929218726117644      -0.5605275840034425
900000000                -0.8380515240838255      -0.4901192395435577
930000000                -0.8769006591769891      -0.41610730256017076
960000000                -0.909183515355724       -0.33905060621777167
990000000                -0.934664042092536       -0.2595305719184881
1020000000               -0.9531576866954122      -0.1781467646288347
1050000000               -0.9645327780020901      -0.09551230749109203
1080000000               -0.968711496891868       -0.012249192975618446
1110000000               -0.9656704262555108      0.07101647191934578
1140000000               -0.9554406765472496      0.1536592475899123
1170000000               -0.9381075865954476      0.2350591328257482
1200000000               -0.9138100029920319      0.31460628626215215
1230000000               -0.882739144919404       0.3917056606377769
1260000000               -0.845137064669107       0.46578151294164416
1290000000               -0.801294717686373       0.5362817546606354
1320000000               -0.7515496587770717      0.6026821083261389
1350000000               -0.6962833845795244      0.6644900377883869
1380000000               -0.6359183448669155      0.7212484222684945
1410000000               -0.5709146480457383      0.7725389463026451
1440000000               -0.5017664882749718      0.8179851804969496
1470000000               -0.4289983238721948      0.8572553306098615
1500000000               -0.3531608382528652      0.8900646354613381
1530000000               -0.2748267162081223      0.9161773971944083
1560000000               -0.19458626918590768     0.935408630608703
1590000000               -0.11304294449910907     0.9476253212814174
1620000000               -0.030808753214432195    0.9527472855911457
1650000000               0.05150034754702642      0.9507476287688302
1680000000               0.13326908277462943      0.9416528003202496
1710000000               0.21388746341688647      0.9255422492268788
1740000000               0.2927553314225726       0.9025476843077611
1770000000               0.36928681267292274      0.87285194799645
1800000000               0.44291464543745696      0.8366875145395897
1830000000               0.5130943533561697       0.7943346262395061
1860000000               0.5793082333835248       0.7461190838111138
1890000000               0.6410691309443529       0.6924097091679622
1920000000               0.6979239761796013       0.6336155011610793
1950000000               0.7494570572824906       0.5701825067118638
1980000000               0.7952930092074454       0.5025904312510251
2010000000               0.8350994977590273       0.4313490145527573
2040000000               0.8685895821452061       0.35699419857923587
2070000000               0.8955237410147305       0.28008411550491374
2100000000               0.9157115497845898       0.20119492457669344
2130000000               0.9290129994714743       0.12091652692774316
2.16E9                   0.9353394496384301       0.039848186758937254
2.19E9                   0.9346542095109183       -0.04140591287689769
2.22E9                   0.9269727418685275       -0.12224115261135855
2.25E9                   0.9123624830203977       -0.20205697029344105
2.28E9                   0.8909422696593787       -0.28026133501556655
2.31E9                   0.8628813623596628       -0.3562751629073337
2.34E9                   0.8283980620408369       -0.42953662264285114
2.37E9                   0.7877579356312712       -0.4995052687345034
2.4E9                    0.7412716968520204       -0.5656659484552174
2.43E9                   0.689292808255339        -0.627532460706206
2.46E9                   0.6322148559356411       -0.6846509884429085
2.49E9                   0.5704687038880675       -0.7366033407858583
2.52E9                   0.5045193957640359       -0.7830100137108668
2.55E9                   0.4348627721626363       -0.823533032284567
2.58E9                   0.3620218038886096       -0.8578785125361948
2.61E9                   0.2865426761483413       -0.8857988872355933
2.64E9                   0.2089906740444313       -0.9070947621600545
2.67E9                   0.12994591917369522      -0.9216163886277626
2.7E9                    0.04999899953654055      -0.9292647483585089
2.73E9                   -0.030253471484436648    -0.929992249966427
2.76E9                   -0.11021333447976432     -0.9238030367771304
2.79E9                   -0.18928537021595152     -0.9107529060016886
2.82E9                   -0.26688176083360465     -0.890948840329124
2.85E9                   -0.34242649365951205     -0.8645481549446015
2.88E9                   -0.4153596750336432      -0.8317572654488364
2.91E9                   -0.4851417213707084      -0.7928300850478276
2.94E9                   -0.5512573954593399      -0.7480660622610625
2.97E9                   -0.6132196565355627      -0.6978078734717118
3.0E9                    -0.6705732940679074      -0.6424387875169073
3.03E9                   -0.7228983166816256      -0.5823797223439664
3.06E9                   -0.7698130695080514      -0.5180860163729366
3.09E9                   -0.8109770553438262      -0.4500439397705083
3.12E9                   -0.8460934374025882      -0.37876697306740625
3.15E9                   -0.8749112042067613      -0.30479188231806686
3.18E9                   -0.8972269796981304      -0.228674622213204
3.21E9                   -0.9128864649565407      -0.15098609930018134
3.24E9                   -0.9217855007189328      -0.07230782922793914
3.27E9                   -0.923870743242647       0.006772477883843813
3.3E9                    -0.9191399491006247      0.08566536905473267
3.33E9                   -0.9076418676688711      0.1637841021672327
3.36E9                   -0.8894757431893938      0.24054906681261007
3.39E9                   -0.8647904312390502      0.3153921380946947
3.42E9                   -0.8337831375336031      0.3877609291078835
3.45E9                   -0.796697789880583       0.4571229090787469
3.48E9                   -0.7538230570541398      0.5229693549147533
3.51E9                   -0.7054900314228527      0.5848191050164665
3.54E9                   -0.6520695950993018      0.6422220858667771
3.57E9                   -0.5939694924646844      0.6947625837137891
3.6E9                    -0.5316311346628901      0.7420622362161913
3.63E9                   -0.46552616429088833     0.7837827216975676
3.66E9                   -0.3961528105542625      0.8196281270374381
3.69E9                   -0.3240320665784923      0.8493469788003886
3.72E9                   -0.24970372149159506     0.8727339257605072
3.75E9                   -0.1737222803636728      0.8896310645146621
3.78E9                   -0.0966528050404131      0.8999289033909902
3.81E9                   -0.019066708502217724    0.9035669633039417
3.84E9                   0.05846246559013864      0.9005340175779066
3.87E9                   0.13536324827288482      0.8908679757836098
3.9E9                    0.21107040803491017      0.8746554188086147
3.93E9                   0.28502904565682813      0.8520307934652749
3.96E9                   0.3566985977726061       0.823175274940483
3.99E9                   0.42555672614425116      0.788315305020837
4.02E9                   0.4911030691083065       0.747720813953858
4.05E9                   0.5528628301761463       0.7017031349338694
4.08E9                   0.6103901773863338       0.6506126227080632
4.11E9                   0.6632714265933437       0.5948359914376898
4.14E9                   0.7111279828203184       0.5347933909924748
4.17E9                   0.7536190160476288       0.47093524468113696
4.2E9                    0.7904438510949703       0.40373887442433526
4.23E9                   0.821344055114902        0.3337049410962497
4.26E9                   0.8461052098574506       0.26135372862531264
4.29E9                   0.8645583591794335       0.1872213001684251
4.32E9                   0.8765811247644714       0.11185555431151611
4.35E9                   0.8820984849408661       0.03581220841299918
4.38E9                   0.8810832128765107       -0.04034926366478123
4.41E9                   0.8735559718298618       -0.1160697125437224
4.44E9                   0.8595850666146323       -0.19079438527695244
4.47E9                   0.8392858523908817       -0.26397696006124016
4.5E9                    0.8128198041365331       -0.3350835152712092
4.53E9                   0.7803932527857533       -0.4035964039433846
4.56E9                   0.7422557967748091       -0.4690180053085513
4.59E9                   0.698698400529997        -0.53087432569341
4.62E9                   0.6500511942117708       -0.5887184222422863
4.65E9                   0.5966809914694153       -0.6421336246660276
4.68E9                   0.5389885440574954       -0.6907365322213495
4.71E9                   0.477405553724779        -0.7341797652823767
4.74E9                   0.4123914625538106       -0.7721544530647487
4.77E9                   0.34443004395348287      -0.8043924403782008
4.8E9                    0.2740258168893469       -0.8306681976971687
4.83E9                   0.2017003074144025       -0.8508004194790119
4.86E9                   0.12798818322873426      -0.8646532967567124
4.89E9                   0.053433289437660396     -0.8721374516169065
4.92E9                   -0.021415384094628287    -0.8732105237433077
4.95E9                   -0.09600777141960909     -0.8678774025858325
4.98E9                   -0.1697968017958399      -0.8561901027723838
5.01E9                   -0.24224243996374126     -0.838247284684051
5.04E9                   -0.312815662978497       -0.8141934262410567
5.07E9                   -0.38100234277965134     -0.784217655603324
5.1E9                    -0.446307006471399       -0.7485522571439512
5.13E9                   -0.508256448820434       -0.7074708646225862
5.16E9                   -0.5664031737146417      -0.6612863559237327
5.19E9                   -0.6203286422347852      -0.6103484636945321
5.22E9                   -0.6696463047521496      -0.5550411165497331
5.25E9                   -0.7140043933637644      -0.4957795272566369
5.28E9                   -0.7530884504336943      -0.43300704780380006
5.31E9                   -0.7866235701385553      -0.36719181594737993
5.34E9                   -0.8143763334138868      -0.2988232221953877
5.37E9                   -0.8361564218431955      -0.228408228936541
5.4E9                    -0.8518179014968634      -0.15646757388425014
5.43E9                   -0.8612601722049746      -0.08353188831816244
5.46E9                   -0.8644285802872684      -0.010137758606186173
5.49E9                   -0.8613146939022368      0.06317624259966567
5.52E9                   -0.8519562403561718      0.13587352963957453
5.55E9                   -0.8364367049935698      0.2074234554726358
5.58E9                   -0.8148845921718956      0.2773052141250844
5.61E9                   -0.7874723506440957      0.34501166485925966
5.64E9                   -0.7544149685269537      0.41005304736950143
5.67E9                   -0.715968246975687       0.471960556186043
5.7E9                    -0.6724267665407492      0.5302897424816001
5.73E9                   -0.6241215654795993      0.584623713205917
5.76E9                   -0.5714175542148786      0.634576101034946
5.79E9                   -0.5147106930195551      0.679793784206626
5.82E9                   -0.45442496064152077     0.7199593407456736
5.85E9                   -0.39100913968670375     0.75479322602247
5.88E9                   -0.3249334421783925      0.784055664362745
5.91E9                   -0.2566859972663282      0.8075482452938018
5.94E9                   -0.18676922354474784     0.8251152142604274
5.97E9                   -0.11569611050725613     0.8366444476809175
6.0E9                    -0.043986436398905406    0.8420681037494472
