% Model:              three_layers reality at 0.1mm.mph
% Version:            COMSOL 5.6.0.280
% Date:               Feb 22 2022, 20:29
% Table:              表格 1 - 全局计算 1
% freq (Hz)              real(emw.S11) (1)        imag(emw.S11) (1)
300000000                0.3769034141089435       -0.8039848665409771
330000000                0.2869920668286605       -0.8370196039683466
360000000                0.1944946462599349       -0.8603018293965001
390000000                0.10042268929920405      -0.8736303541575847
420000000                0.005811687418268008     -0.8769116272780195
450000000                -0.08829318468974137     -0.8701622670906309
480000000                -0.180850760843666       -0.8535097708786505
510000000                -0.2708370582624099      -0.8271915707079268
540000000                -0.35725791786026867     -0.7915525592544377
570000000                -0.4391610473070336      -0.7470411897503884
600000000                -0.5156473808721673      -0.6942042483002892
630000000                -0.5858816599572466      -0.633680398279706
660000000                -0.6491021353560913      -0.5661926023712215
690000000                -0.7046292964137676      -0.4925395349009989
720000000                -0.7518735388712345      -0.41358610546789737
750000000                -0.7903416937054697      -0.3302532224741826
780000000                -0.8196423515999846      -0.24350693196893364
810000000                -0.8394899314464782      -0.15434707302183404
840000000                -0.8497074565058027      -0.06379559481362394
870000000                -0.8502280176654612      0.027115316980649107
900000000                -0.8410949194936506      0.11735515656796487
930000000                -0.8224605210329221      0.20590691044894985
960000000                -0.7945837994225493      0.29177862243001734
990000000                -0.7578266800139974      0.37401457307230324
1020000000               -0.7126491914303318      0.4517059422237507
1050000000               -0.6596035178514038      0.5240008317489769
1080000000               -0.5993270334341319      0.5901135356173289
1110000000               -0.5325344150165395      0.6493329558184469
1140000000               -0.4600089389905593      0.7010300749360622
1170000000               -0.382593076376213       0.7446644094616595
1200000000               -0.30117850655513445     0.7797893819000603
1230000000               -0.21669567481803462     0.8060565640721195
1260000000               -0.13010302193387188     0.8232187585679687
1290000000               -0.04237601511450251     0.8311318999584828
1320000000               0.045503890529622205     0.8297557716802513
1350000000               0.13256023294305966      0.8191535485599482
1380000000               0.21783234290690975      0.7994901883424299
1410000000               0.30038584370577104      0.7710297083449167
1440000000               0.37932273801901284      0.7341313952284436
1470000000               0.4537909763907408       0.6892450068429723
1500000000               0.5229934097991266       0.6369050350351249
1530000000               0.5861960378846123       0.5777241071214124
1560000000               0.6427354739768749       0.5123856114308443
1590000000               0.6920255582949949       0.44163563889375346
1620000000               0.7335630613347711       0.3662743379564781
1650000000               0.76693243038258         0.28714678431167373
1680000000               0.7918095431918861       0.2051334699980381
1710000000               0.807964444133273        0.12114051820321375
1740000000               0.8152630492989641       0.03608973089173882
1770000000               0.8136678182263073       -0.04909142400242189
1800000000               0.8032374009244934       -0.1334797806976126
1830000000               0.7841252796959989       -0.21616629646930227
1860000000               0.7565774358009296       -0.2962656268235921
1890000000               0.7209290812061436       -0.3729253616337831
1920000000               0.6776005052920582       -0.44533483580178984
1950000000               0.6270920952704202       -0.5127334366155861
1980000000               0.5699785965291424       -0.5744183409328354
2010000000               0.5069026842144896       -0.629751628907625
2040000000               0.4385679184165223       -0.6781667375563702
2070000000               0.3657311490271582       -0.7191742368644407
2100000000               0.2891944185022725       -0.7523669308927755
2130000000               0.20979637492349656      -0.7774243005155446
2.16E9                   0.12840314902430663      -0.794116298657788
2.19E9                   0.04589856964549632      -0.8023064571317967
2.22E9                   -0.03682648127131447     -0.8019541283615296
2.25E9                   -0.11888576443756077     -0.7931154336733587
2.28E9                   -0.1994103916456309      -0.7759421547739985
2.31E9                   -0.2775619086596069      -0.7506775820992457
2.34E9                   -0.35254418621124795     -0.7176486359267297
2.37E9                   -0.42361183349765813     -0.6772548076545821
2.4E9                    -0.4900733442098945      -0.6299563785943096
2.43E9                   -0.5512894493955472      -0.5762655661181215
2.46E9                   -0.6066700064537415      -0.5167430826887014
2.49E9                   -0.655673714523193       -0.4519993013059381
2.52E9                   -0.6978128844559515      -0.3826963833251217
2.55E9                   -0.7326621955346267      -0.3095476165762305
2.58E9                   -0.7598685029867379      -0.23331237386618595
2.61E9                   -0.7791590929631185      -0.1547873724650526
2.64E9                   -0.7903471904788205      -0.07479590488662212
2.67E9                   -0.7933347312101775      0.005823466598537448
2.7E9                    -0.7881129527401761      0.08622787451816008
2.73E9                   -0.7747614066869947      0.1655804236359499
2.76E9                   -0.7534458341686331      0.24305973097759886
2.79E9                   -0.7244151710590533      0.31786878634250015
2.82E9                   -0.6879978249309886      0.3892432002044768
2.85E9                   -0.6445972964621257      0.45645887839993043
2.88E9                   -0.594687187988426       0.518839131318655
2.91E9                   -0.5388056342750124      0.5757612006960721
2.94E9                   -0.47754919400486007     0.6266621718085327
2.97E9                   -0.4115662482833732      0.6710442316582347
3.0E9                    -0.34154996127869536     0.7084792323252321
3.03E9                   -0.26823086660569473     0.7386125213018463
3.06E9                   -0.19236914982136605     0.7611660064620205
3.09E9                   -0.11474670295941786     0.775940430787182
3.12E9                   -0.036159030164657935    0.7828168410257456
3.15E9                   0.04259291515913528      0.7817572439322237
3.18E9                   0.1207108824539672       0.7728044531824403
3.21E9                   0.19740738935702176      0.7560811384202
3.24E9                   0.2719136288574399       0.7317880943930342
3.27E9                   0.3434871522941343       0.7002017521303485
3.3E9                    0.4114192664367746       0.6616709555155418
3.33E9                   0.4750420852434445       0.6166130259380869
3.36E9                   0.533735175438682        0.5655091364385435
3.39E9                   0.58693172989958         0.5088990167871646
3.42E9                   0.6341241940809632       0.44737501456024004
3.45E9                   0.6748692599707802       0.38157554695442064
3.48E9                   0.7087921324110543       0.31217799525494755
3.51E9                   0.7355899678335445       0.2398911193414683
3.54E9                   0.7550343905642738       0.1654471010577186
3.57E9                   0.766973010419352        0.0895933587593215
3.6E9                    0.7713298990355018       0.013084303224345685
3.63E9                   0.7681050280812045       -0.06332677968925494
3.66E9                   0.7573727231125276       -0.13889553732661125
3.69E9                   0.7392792332645137       -0.21289388799462294
3.72E9                   0.7140395525811517       -0.2846167607132057
3.75E9                   0.681933652362213        -0.35338814925052126
3.78E9                   0.6433022986849513       -0.41856643538425886
3.81E9                   0.5985426372662774       -0.4795489843581708
3.84E9                   0.5481037238401989       -0.535776073711053
3.87E9                   0.49248214971831267      -0.5867342828900242
3.9E9                    0.4322178474699415       -0.6319595301335906
3.93E9                   0.3678900623438708       -0.671039969284476
3.96E9                   0.3001133630305495       -0.7036189294606899
3.99E9                   0.2295334772392309       -0.7293979902523576
4.02E9                   0.15682270761775002      -0.748140155622513
4.05E9                   0.08267472634523276      -0.7596729606265854
4.08E9                   0.007798649467582664     -0.763891256932725
4.11E9                   -0.06708757857513384     -0.7607593999507828
4.14E9                   -0.1412643421336439      -0.7503126022382487
4.17E9                   -0.21401782857284568     -0.7326573049886225
4.2E9                    -0.28464757125514967     -0.7079705224930103
4.23E9                   -0.3524738378509012      -0.6764982056914244
4.26E9                   -0.4168446975413881      -0.6385527308771591
4.29E9                   -0.4771426677660537      -0.5945096410381907
4.32E9                   -0.5327908981119919      -0.5448037548264509
4.35E9                   -0.583258882239736       -0.48992472524341535
4.38E9                   -0.6280676946445759      -0.4304120942181463
4.41E9                   -0.6667947342273539      -0.36684986441265016
4.44E9                   -0.6990779324073539      -0.29986060340428117
4.47E9                   -0.7246193620015158      -0.23009910710525183
4.5E9                    -0.7431881723271666      -0.1582456727656849
4.53E9                   -0.7546227788642694      -0.08499905966349296
4.56E9                   -0.7588322517244479      -0.011069240844326892
4.59E9                   -0.755796873453138       0.06282993312242684
4.62E9                   -0.7455678695729371      0.13598803089276956
4.65E9                   -0.7282663496572939      0.20770517799181729
4.68E9                   -0.7040815253330256      0.2772989383344536
4.71E9                   -0.6732682861860521      0.3441108765948038
4.74E9                   -0.6361442090124276      0.40751277446194545
4.77E9                   -0.5930860510078739      0.4669124988811967
4.8E9                    -0.5445257429722982      0.521759523585746
4.83E9                   -0.4909458704700749      0.5715500835658636
4.86E9                   -0.43287462388472264     0.615831904344947
4.89E9                   -0.37088021871168614     0.6542084101125214
4.92E9                   -0.3055648303617483      0.6863422932524165
4.95E9                   -0.23755813998036743     0.7119583324848173
4.98E9                   -0.16751063455807885     0.7308453783209465
5.01E9                   -0.09608683315190306     0.7428574768772519
5.04E9                   -0.023958613881754867    0.7479141656449931
5.07E9                   0.048201210439415304     0.7460000350893079
5.1E9                    0.11972497414318806      0.7371636931394822
5.13E9                   0.189955875665102        0.7215162814440602
5.16E9                   0.2582533771078799       0.69922966346977
5.19E9                   0.3239983765445207       0.6705343390773502
5.22E9                   0.3865982374447766       0.6357170599185722
5.25E9                   0.4454917023376222       0.595118060099873
5.28E9                   0.5001536326425008       0.5491278088827711
5.31E9                   0.5500994457394323       0.49818324493932153
5.34E9                   0.5948891019284496       0.4427635405872316
5.37E9                   0.6341305389529648       0.3833855246543139
5.4E9                    0.667482537291032        0.32059892499255804
5.43E9                   0.6946570841306574       0.25498156367625724
5.46E9                   0.7154213515287773       0.18713456701314513
5.49E9                   0.7295994005027975       0.11767757154875876
5.52E9                   0.7370736759317765       0.04724384664652494
5.55E9                   0.7377862882018992       -0.02352476981234826
5.58E9                   0.7317400082813528       -0.09398321150756235
5.61E9                   0.7189988497406262       -0.16348884237222866
5.64E9                   0.6996880847101586       -0.2314074095997688
5.67E9                   0.6739935482448107       -0.29711919035011825
5.7E9                    0.6421601315733295       -0.3600251621791406
5.73E9                   0.6044894458948836       -0.4195529862158142
5.76E9                   0.5613367361021215       -0.47516260080195005
5.79E9                   0.5131072035313434       -0.5263512884139272
5.82E9                   0.46025192268387816      -0.5726581794462083
5.85E9                   0.40326349561493874      -0.6136682487555812
5.88E9                   0.3426715025103615       -0.649015901883657
5.91E9                   0.27903772366077195      -0.6783882245625622
5.94E9                   0.21295106610250356      -0.701527903163754
5.97E9                   0.14502213815536075      -0.7182357538928861
6.0E9                    0.07587746127492974      -0.7283727541792592
