% Model:              three_layers reality at 0.1mm.mph
% Version:            COMSOL 5.6.0.280
% Date:               Feb 23 2022, 15:54
% Table:              表格 1 - 全局计算 1
% freq (Hz)              real(emw.S11) (1)        imag(emw.S11) (1)
300000000                0.5949250782917698       -0.7324287012541705
330000000                0.5286004883990029       -0.7807552428330254
360000000                0.4584717677153851       -0.8231667424878846
390000000                0.38505104040589677      -0.8593597369961078
420000000                0.3088776540419964       -0.8890758279416815
450000000                0.230513397436237        -0.912103982125394
480000000                0.1505377845883901       -0.9282823803344423
510000000                0.06954335106033031      -0.937499832876092
540000000                -0.011869053359717087    -0.9396967698247368
570000000                -0.09309497372230152     -0.9348658104860853
600000000                -0.1735310453503571      -0.9230519150189868
630000000                -0.2525796543485459      -0.9043521216873622
660000000                -0.3296535364648234      -0.8789148744289141
690000000                -0.40418028487679525     -0.846938947648003
720000000                -0.4756067371157309      -0.8086719771126257
750000000                -0.5434032088628825      -0.764408608989752
780000000                -0.6070675443555441      -0.7144882811522943
810000000                -0.6661289519603584      -0.6592926544719502
840000000                -0.72015159626275        -0.5992427136489544
870000000                -0.7687379181206847      -0.5347955606263978
900000000                -0.8115316567946496      -0.46644092573637774
930000000                -0.8482205502874441      -0.3946974240538108
960000000                -0.8785386921977004      -0.3201085870522876
990000000                -0.9022685264936476      -0.24323870112865753
1020000000               -0.9192424643770792      -0.16466848633272746
1050000000               -0.9293441104220417      -0.08499065030392994
1080000000               -0.9325090886236191      -0.004805353016401047
1110000000               -0.9287254621858673      0.07528438083183703
1140000000               -0.9180337444343896      0.1546772650635557
1170000000               -0.9005265015733972      0.23277833377059448
1200000000               -0.8763475515670461      0.30900346462746636
1230000000               -0.8456907667245466      0.38278380800668865
1260000000               -0.8087984909413719      0.45357008647575187
1290000000               -0.7659595856638927      0.5208367309572693
1320000000               -0.7175071217672606      0.5840858211113027
1350000000               -0.6638157372990681      0.6428507996083002
1380000000               -0.6052986836476912      0.6966999319799905
1410000000               -0.5424045852464892      0.7452394859435193
1440000000               -0.47561393979652905     0.7881166069209818
1470000000               -0.4054353880949122      0.8250218689053448
1500000000               -0.3324017840033719      0.8556914828235928
1530000000               -0.25706609643356887     0.8799091474641086
1560000000               -0.17999717608425156     0.8975075310832747
1590000000               -0.10177542055953542     0.9083693748008518
1620000000               -0.02298837176391242     0.9124282120278319
1650000000               0.05577372046872889      0.9096687012230412
1680000000               0.1339223344770659       0.9001265722476428
1710000000               0.2108750793828742       0.88388818957131
1740000000               0.2860600311465582       0.8610897384323949
1770000000               0.3589199705589199       0.831916042736245
1800000000               0.42891649209712973      0.7965990261944105
1830000000               0.49553395442460957      0.7554158305955856
1860000000               0.5582832446106529       0.7086866074453128
1890000000               0.6167053297677421       0.6567720014213696
1920000000               0.6703745718390067       0.600070345959986
1950000000               0.7189017830121213       0.5390145932435818
1980000000               0.7619370014671042       0.4740690024160634
2010000000               0.7991719694846936       0.405725611110068
2040000000               0.8303422980052005       0.33450051687599835
2070000000               0.8552293044564803       0.26092999561284785
2100000000               0.8736615129343814       0.18556648493687689
2130000000               0.8855158083178019       0.10897446029959955
2.16E9                   0.8907182379113338       0.031726231484736335
2.19E9                   0.8892444556233094       -0.04560231384192101
2.22E9                   0.8811198037291998       -0.12243599361018476
2.25E9                   0.8664190256895115       -0.19820461518857604
2.28E9                   0.8452656009214309       -0.27234722943320894
2.31E9                   0.8178306922016344       -0.34431631500735915
2.34E9                   0.7843317046563119       -0.41358184012566923
2.37E9                   0.745030477731929        -0.479635139988694
2.4E9                    0.7002311622724893       -0.5419925599672574
2.43E9                   0.650277851274457        -0.600198852482463
2.46E9                   0.59555201238906         -0.6538303579129069
2.49E9                   0.5364697199040845       -0.7024980104694146
2.52E9                   0.47347864655885097      -0.7458501745089445
2.55E9                   0.4070547817178847       -0.7835752681987175
2.58E9                   0.33769888011369675      -0.8154041090013051
2.61E9                   0.2659326807582275       -0.8411119263280459
2.64E9                   0.1922949492528897       -0.8605200118362686
2.67E9                   0.11733739313279906      -0.8734969977449064
2.7E9                    0.041620491145680207     -0.8799597628344181
2.73E9                   -0.0342907300966397      -0.8798739681312985
2.76E9                   -0.10983094185419127     -0.8732542238564287
2.79E9                   -0.18443875200606075     -0.8601638890650943
2.82E9                   -0.2575609069679303      -0.8407145062773607
2.85E9                   -0.3286564268781471      -0.8150648750743781
2.88E9                   -0.3972006431228204      -0.7834197711067581
2.91E9                   -0.46268910814321496     -0.7460283195079436
2.94E9                   -0.5246413474530035      -0.703182034619743
2.97E9                   -0.5826044250887403      -0.6552125405932653
3.0E9                    -0.6361562946671985      -0.6024889902739227
3.03E9                   -0.6849089100767503      -0.5454152022182347
3.06E9                   -0.7285110714706063      -0.4844265382323023
3.09E9                   -0.7666509845214761      -0.41998654589822043
3.12E9                   -0.7990585130776123      -0.35258339269617156
3.15E9                   -0.8255071079843965      -0.28272612005430586
3.18E9                   -0.845815397639905       -0.21094074689238318
3.21E9                   -0.8598484284484447      -0.13776625388685845
3.24E9                   -0.8675185465398907      -0.06375047996898672
3.27E9                   -0.8687859148574669      0.010554036364176431
3.3E9                    -0.8636586627873225      0.08459423841422894
3.33E9                   -0.8521926683453169      0.15782072264459532
3.36E9                   -0.8344909758065246      0.22969186750923695
3.39E9                   -0.8107028544300597      0.2996778878537287
3.42E9                   -0.7810225066948013      0.3672647832846219
3.45E9                   -0.7456874371641181      0.43195814987263337
3.48E9                   -0.704976495891682       0.4932868253048554
3.51E9                   -0.659207613027168       0.5508063389199359
3.54E9                   -0.6087352441987275      0.6041021393978939
3.57E9                   -0.5539475490526851      0.6527925748713139
3.6E9                    -0.495263327974687       0.6965316026782151
3.63E9                   -0.4331287444794109      0.7350112087688587
3.66E9                   -0.3680138624220119      0.7679635202571098
3.69E9                   -0.3004090285498662      0.7951625979858996
3.72E9                   -0.2308211313811711      0.8164258995894207
3.75E9                   -0.15976976766717998     0.8316154068633671
3.78E9                   -0.08778334733527321     0.8406384146030034
3.81E9                   -0.015395167194039418    0.8434479812837652
3.84E9                   0.0568605176546944       0.8400430450453232
3.87E9                   0.1284523977190368       0.8304682110399361
3.9E9                    0.19885596367223446      0.814813217903323
3.93E9                   0.267557289452712        0.7932120916078462
3.96E9                   0.3340567229821918       0.7658419945306036
3.99E9                   0.39787246395253284      0.732921776808843
4.02E9                   0.45854400686711705      0.6947102369900717
4.05E9                   0.5156354258223498       0.6515041002071467
4.08E9                   0.5687384759590097       0.6036357248883029
4.11E9                   0.6174754862092847       0.5514705528458345
4.14E9                   0.6615020190853305       0.4954043217120129
4.17E9                   0.7005092756836547       0.43586006257488186
4.2E9                    0.7342262278218652       0.3732849081208414
4.23E9                   0.7624214628177527       0.3081467384691148
4.26E9                   0.7849047304227625       0.24093069185460184
4.29E9                   0.8015281843059235       0.17213556715334796
4.32E9                   0.81218731289867         0.10227014430125901
4.35E9                   0.8168215560005149       0.0318494479320322
4.38E9                   0.8154146047189518       -0.03860902073894394
4.41E9                   0.8079943834625567       -0.10858905865370705
4.44E9                   0.7946327140880183       -0.1775795167237426
4.47E9                   0.7754446640899726       -0.24507801054219366
4.5E9                    0.7505875829380746       -0.3105945594984386
4.53E9                   0.720259833154422        -0.3736551277021868
4.56E9                   0.6846992254127934       -0.4338050405088894
4.59E9                   0.6441811696173709       -0.49061225129553715
4.62E9                   0.5990165564487537       -0.5436704345435492
4.65E9                   0.5495493861779988       -0.5926018829596321
4.68E9                   0.49615416327380724      -0.6370601886164243
4.71E9                   0.43923307650561194      -0.6767326902672101
4.74E9                   0.3792129848855343       -0.7113426709137765
4.77E9                   0.31654223011943083      -0.7406512911924956
4.8E9                    0.25168729677821416      -0.7644592449764985
4.83E9                   0.18512934252430285      -0.7826081242119496
4.86E9                   0.11736062251814056      -0.7949814808472054
4.89E9                   0.04888083442287403      -0.8015055752856753
4.92E9                   -0.019806587309816593    -0.8021498033576869
4.95E9                   -0.08819819746405955     -0.7969267972621762
4.98E9                   -0.15579425510482833     -0.7858922000232162
5.01E9                   -0.22210239686432276     -0.7691441172268223
5.04E9                   -0.2866412388465278      -0.7468222537486385
5.07E9                   -0.34894388005575794     -0.7191067464040487
5.1E9                    -0.408561283043966       -0.6862167055721873
5.13E9                   -0.4650655103087171      -0.6484084796810405
5.16E9                   -0.5180527969425305      -0.6059736561909427
5.19E9                   -0.5671464406310422      -0.559236812106871
5.22E9                   -0.6119994892676872      -0.5085530271017833
5.25E9                   -0.6522972049531135      -0.4543051741024153
5.28E9                   -0.6877592823488194      -0.39690100596072186
5.31E9                   -0.7181418007753386      -0.3367700615193958
5.34E9                   -0.7432388931497643      -0.274360418739144
5.37E9                   -0.7628841203560354      -0.21013532464132811
5.4E9                    -0.7769515449834105      -0.14456973155973035
5.43E9                   -0.7853565023682787      -0.07814676688128497
5.46E9                   -0.788056068690403       -0.01135416091111497
5.49E9                   -0.7850492261748818      0.05531934458956748
5.52E9                   -0.7763767249463426      0.1213875850280231
5.55E9                   -0.7621206408949173      0.1863705358317812
5.58E9                   -0.7424036295579276      0.2497978249423417
5.61E9                   -0.7173878778330982      0.3112121682443893
5.64E9                   -0.6872737582757783      0.3701726995574743
5.67E9                   -0.6522981948701274      0.42625816555875123
5.7E9                    -0.6127327541546984      0.4790699562536873
5.73E9                   -0.5688814809599111      0.5282349436002187
5.76E9                   -0.5210785024922604      0.5734081051448702
5.79E9                   -0.469685426925563       0.6142749151945378
5.82E9                   -0.41508856222267954     0.6505534917088436
5.85E9                   -0.35769597826125815     0.6819964908902754
5.88E9                   -0.29793443249921214     0.7083927424162986
5.91E9                   -0.23624617790760036     0.729568617298936
5.94E9                   -0.17308567282272946     0.7453891189671675
5.97E9                   -0.10891621485326937     0.755758688016399
6.0E9                    -0.04420652398083718     0.7606217126364231
