% Model:              three_layers reality at 0.1mm.mph
% Version:            COMSOL 5.6.0.280
% Date:               Mar 8 2022, 19:06
% Table:              表格 1 - 全局计算 1
% freq (Hz)              real(emw.S11) (1)        imag(emw.S11) (1)
300000000                0.4102894047007922       -0.7780062407619108
330000000                0.32608623230594613      -0.8141914744986741
360000000                0.2389165895274438       -0.8414878003525769
390000000                0.1496860500506811       -0.8596502735642734
420000000                0.05932589916616973      -0.8685285154425652
450000000                -0.031218492153946543    -0.8680689126168789
480000000                -0.12099893334047032     -0.8583155702724851
510000000                -0.2090753793561774      -0.8394100639962894
540000000                -0.2945265832089602      -0.8115900306540036
570000000                -0.37646038588630076     -0.7751866399935079
600000000                -0.45402357232662915     -0.7306209938756341
630000000                -0.526411212740867       -0.6783995069606548
660000000                -0.5928754045693511      -0.6191083308108727
690000000                -0.6527333308655474      -0.553406892209001
720000000                -0.7053745554106812      -0.4820206246257137
750000000                -0.7502674803627722      -0.4057329803758785
780000000                -0.7869649008224651      -0.32537681789553385
810000000                -0.8151085995359829      -0.24182526578042807
840000000                -0.834432936029118       -0.1559821698426901
870000000                -0.844767395231348       -0.0687722344681686
900000000                -0.846038073001989       0.01886902806301919
930000000                -0.83826808804483        0.10600542502261012
960000000                -0.821576922241712       0.19171017169044152
990000000                -0.7961787038725741      0.2750758271198458
1020000000               -0.762379460404557       0.35522396533664313
1050000000               -0.7205733792645703      0.4313144751135427
1080000000               -0.6712381262701701      0.5025543861237429
1110000000               -0.6149292818644322      0.5682061262321855
1140000000               -0.5522739647521195      0.6275951224381817
1170000000               -0.48396372127297727     0.6801166663287324
1200000000               -0.4107467662638669      0.7252419746159786
1230000000               -0.3334196672912637      0.762523385538497
1260000000               -0.25281856953337156     0.7915986422864171
1290000000               -0.16981006207519408     0.81219422597828
1320000000               -0.08528178899637169     0.8241277117957875
1350000000               -1.3290999895545496E-4   0.8273091331920605
1380000000               0.08473548488421159      0.8217413503579604
1410000000               0.16842990293683152      0.8075194300924284
1440000000               0.2500738177064749       0.7848290548637209
1470000000               0.328816781446149        0.7539439890284158
1500000000               0.40384318773903943      0.7152226397756766
1530000000               0.47438059610989697      0.6691037593708603
1560000000               0.5397075367323769       0.6161013434539963
1590000000               0.5991607198767073       0.556798787691754
1620000000               0.652141582329487        0.49184237168728084
1650000000               0.6981221108416229       0.4219341448667646
1680000000               0.7366498910568335       0.34782429398029224
1710000000               0.7673523390672202       0.2703030758714119
1740000000               0.789940081731362        0.1901924023303198
1770000000               0.8042094611533899       0.10833716586998188
1800000000               0.8100441479616208       0.02559639677838457
1830000000               0.8074158576388482       -0.05716565829388967
1860000000               0.7963841735521993       -0.13908844644902082
1890000000               0.7770954899233438       -0.2193239199120531
1920000000               0.749781097328291        -0.29704516422410504
1950000000               0.7147544424334011       -0.3714547641550464
1980000000               0.672407602122253        -0.44179283497355926
2010000000               0.6232070191958216       -0.5073446565157383
2040000000               0.5676885511862072       -0.567447860023417
2070000000               0.5064518830148342       -0.6214991337687839
2100000000               0.4401543444316632       -0.6689604317639188
2130000000               0.3695041486594386       -0.7093646866288961
2.16E9                   0.29525302308875556      -0.7423210328309133
2.19E9                   0.218188134333675        -0.7675195192237033
2.22E9                   0.13912313257276382      -0.7847351966823939
2.25E9                   0.05888810736423764      -0.7938312709796812
2.28E9                   -0.0216816283938142      -0.7947607155963305
2.31E9                   -0.10175758038440037     -0.7875654708115373
2.34E9                   -0.18052982626415448     -0.772372439897843
2.37E9                   -0.2572166075584225      -0.7493863305493965
2.4E9                    -0.33106995701869385     -0.7188809515403789
2.43E9                   -0.4013771154322357      -0.6811918744419725
2.46E9                   -0.4674599000529699      -0.6367129433910061
2.49E9                   -0.5286754838604638      -0.5858967215604863
2.52E9                   -0.5844209184341645      -0.5292564111745304
2.55E9                   -0.6341411849472491      -0.46736614488483047
2.58E9                   -0.67733873536894        -0.4008579179977253
2.61E9                   -0.7135823616861359      -0.3304152623403951
2.64E9                   -0.7425141662672028      -0.25676477657181745
2.67E9                   -0.7638543815749165      -0.18066669340825903
2.7E9                    -0.777404319388047       -0.10290527467560423
2.73E9                   -0.7830478559884868      -0.024279416782291303
2.76E9                   -0.7807517855028989      0.05440640899305005
2.79E9                   -0.7705652544513559      0.13235087070916673
2.82E9                   -0.7526183953428558      0.20876416084009952
2.85E9                   -0.7271202195774655      0.2828760579626319
2.88E9                   -0.6943558024403322      0.3539436503300955
2.91E9                   -0.6546827844567704      0.4212586882185727
2.94E9                   -0.6085272150682894      0.48415451942838755
2.97E9                   -0.5563787711245398      0.5420125553043527
3.0E9                    -0.498785390991406       0.5942682124328121
3.03E9                   -0.43634737355110115     0.6404162764868948
3.06E9                   -0.3697109992999219      0.6800156386105908
3.09E9                   -0.2995617375485214      0.7126933607568091
3.12E9                   -0.22661710904849086     0.7381480339192508
3.15E9                   -0.15161927699582112     0.756152401685735
3.18E9                   -0.07532744097007171     0.7665552304384088
3.21E9                   0.001489892072860677     0.7692824160811602
3.24E9                   0.07806268782233268      0.7643373244904583
3.27E9                   0.1536271469566014       0.7518003683272033
3.3E9                    0.2274333842616887       0.7318278259724791
3.33E9                   0.29875296094614806      0.7046499093808953
3.36E9                   0.36688620572449104      0.6705680874642348
3.39E9                   0.4311692563344798       0.6299516716424337
3.42E9                   0.49098074548148374      0.5832336725278534
3.45E9                   0.5457480450368115       0.5309059433989992
3.48E9                   0.5949529714588566       0.47351363922890094
3.51E9                   0.6381368471068534       0.4116490406170549
3.54E9                   0.6749048105684402       0.34594481956553735
3.57E9                   0.7049292783763236       0.27706685567580874
3.6E9                    0.7279524830825601       0.2057067415919263
3.63E9                   0.7437880476951335       0.13257413862054032
3.66E9                   0.7523215991195233       0.058389151889364915
3.69E9                   0.7535104662216789       -0.016125112580637535
3.72E9                   0.7473825451128523       -0.09024966618022162
3.75E9                   0.7340344430365828       -0.16327631544413573
3.78E9                   0.7136290350401708       -0.2345138144609109
3.81E9                   0.6863925865668158       -0.30329344475499515
3.84E9                   0.6526116066605955       -0.3689740248005331
3.87E9                   0.6126295892708473       -0.4309464138130421
3.9E9                    0.5668437605919543       -0.4886376395284748
3.93E9                   0.5157018737940053       -0.5415148254694441
3.96E9                   0.459698992021964        -0.58908909475605
3.99E9                   0.39937410587927896      -0.6309195726707094
4.02E9                   0.335306376862922        -0.6666175085141145
4.05E9                   0.26811080487302147      -0.6958504191549766
4.08E9                   0.1984331847751989       -0.7183460591660306
4.11E9                   0.12694432145859302      -0.7338959737995062
4.14E9                   0.05433358218563971      -0.7423584004049593
4.17E9                   -0.01869805005243137     -0.7436603410846242
4.2E9                    -0.0914452152119603      -0.7377987123178742
4.23E9                   -0.16320550072410214     -0.7248405609965136
4.26E9                   -0.23328668094377714     -0.7049224005134879
4.29E9                   -0.30101375311817447     -0.678248754037395
4.32E9                   -0.36573570278305534     -0.6450899943163503
4.35E9                   -0.42683196695297715     -0.6057795490011489
4.38E9                   -0.4837185762801752      -0.5607105115682345
4.41E9                   -0.5358539499380414      -0.5103316741403269
4.44E9                   -0.5827442975758982      -0.45514298874554043
4.47E9                   -0.6239485620039164      -0.3956904696862389
4.5E9                    -0.6590828222452735      -0.33256056835480086
4.53E9                   -0.6878240736237222      -0.2663740769543155
4.56E9                   -0.7099133103992501      -0.1977796432570848
4.59E9                   -0.7251578559045253      -0.1274469998426361
4.62E9                   -0.7334329127194891      -0.05606002421219165
4.65E9                   -0.7346823373733079      0.015690252939748645
4.68E9                   -0.7289186741977467      0.08711258714278314
4.71E9                   -0.7162225034539706      0.15752232919383824
4.74E9                   -0.6967411624303727      0.22624805789057031
4.77E9                   -0.6706868828034044      0.29263801744870743
4.8E9                    -0.6383343590987498      0.3560663507803479
4.83E9                   -0.600017734828921       0.4159391071821036
4.86E9                   -0.556126979353029       0.4716999720627934
4.89E9                   -0.5071036386472131      0.5228356294372425
4.92E9                   -0.4534359761519775      0.568880640406868
4.95E9                   -0.3956535665966965      0.6094217138146096
4.98E9                   -0.33432145341741076     0.6441012626737379
5.01E9                   -0.2700340171230126      0.6726201792174091
5.04E9                   -0.20340871862631202     0.6947398153520195
5.07E9                   -0.13507987239905486     0.7102832137649254
5.1E9                    -0.06569256780939554     0.7191356850234579
5.13E9                   0.004103201849967775     0.7212448530927863
5.16E9                   0.07365820981618079      0.7166202834517773
5.19E9                   0.14232952472975208      0.7053327618775289
5.22E9                   0.20948597020628307      0.6875132219421114
5.25E9                   0.27451355159851315      0.6633512550455405
5.28E9                   0.33682081450150836      0.6330931114477985
5.31E9                   0.3958440262006191       0.597039131169039
5.34E9                   0.4510520353983825       0.55554061750184
5.37E9                   0.5019506869092573       0.508996246813758
5.4E9                    0.5480867359906816       0.4578481568052327
5.43E9                   0.5890512882700477       0.40257785091553056
5.46E9                   0.6244828502440001       0.34370200576506055
5.49E9                   0.6540700917640407       0.2817681967311298
5.52E9                   0.6775543958227956       0.2173504923742033
5.55E9                   0.6947322166359957       0.15104483076835426
5.58E9                   0.7054572030928136       0.08346408684930545
5.61E9                   0.709641987180191        0.015232767520600292
5.64E9                   0.7072594978458817       -0.05301867593079266
5.67E9                   0.6983436495487851       -0.12065985957888946
5.7E9                    0.6829892792875984       -0.18706667209184932
5.73E9                   0.6613512683877695       -0.25162748748513875
5.76E9                   0.6336428742146822       -0.31374918429567045
5.79E9                   0.6001333832089863       -0.3728628092007491
5.82E9                   0.5611452435132606       -0.42842880656370097
5.85E9                   0.5170508209191905       -0.4799418271305115
5.88E9                   0.46826885627062986      -0.5269351858873174
5.91E9                   0.41526062339083974      -0.5689850383733684
5.94E9                   0.358525734019217        -0.6057142966650748
5.97E9                   0.298597528691103        -0.6367962424131632
6.0E9                    0.23603802294203824      -0.6619577445725053
