% Model:              three_layers reality at 0.1mm.mph
% Version:            COMSOL 5.6.0.280
% Date:               Feb 22 2022, 16:20
% Table:              表格 1 - 全局计算 1
% freq (Hz)              real(emw.S11) (1)        imag(emw.S11) (1)
300000000                0.46578702020315144      -0.8646386784509863
330000000                0.3708279357442674       -0.908379238827286
360000000                0.2719323706886616       -0.9417735428414753
390000000                0.17020862039781834      -0.9644811349837865
420000000                0.06679615503773988      -0.9762782220466942
450000000                -0.037147271139838976    -0.977061313598143
480000000                -0.14045885442690445     -0.9668491367072051
510000000                -0.24198409596753898     -0.9457828944463492
540000000                -0.3405900796495678      -0.9141249301406182
570000000                -0.4351784951108302      -0.8722558594026056
600000000                -0.5246982390852036      -0.8206702375887123
630000000                -0.6081574390335367      -0.759970838960424
660000000                -0.6846347527262462      -0.6908616346318466
690000000                -0.7532898080211757      -0.6141395680279024
720000000                -0.8133726587191575      -0.5306852384583276
750000000                -0.8642321454871962      -0.4414526145736486
780000000                -0.9053230649654621      -0.347457909825157
810000000                -0.9362120654885597      -0.24976776136541165
840000000                -0.9565822045778813      -0.14948686070877912
870000000                -0.9662361202924523      -0.047745190747684546
900000000                -0.9650977866131254      0.05431497309954743
930000000                -0.9532128410437379      0.1555521381290944
960000000                -0.930747490817616       0.2548385868330691
990000000                -0.8979860219959322      0.3510731304985511
1020000000               -0.8553269531935925      0.4431934720526597
1050000000               -0.8032778921564674      0.5301880335446758
1080000000               -0.7424491691054129      0.6111071116760135
1110000000               -0.6735463350013785      0.6850732353873905
1140000000               -0.597361625770027       0.7512906111514173
1170000000               -0.5147645047536077      0.8090535546933234
1200000000               -0.4266914053178661      0.8577538218553267
1230000000               -0.3341348029892526      0.8968867664670706
1260000000               -0.23813175264507988     0.9260562683033918
1290000000               -0.13975202995429933     0.9449783902480857
1320000000               -0.04008601849125846     0.9534837395634471
1350000000               0.05976751589737966      0.9515185239897148
1380000000               0.15871362338828449      0.9391443087985643
1410000000               0.2556732042213383       0.9165364958185441
1440000000               0.34959474631285714      0.8839815596124838
1470000000               0.439465640353148        0.8418730893140849
1500000000               0.5243229537020572       0.7907066969565559
1530000000               0.6032635528515091       0.7310738644089929
1560000000               0.675453473749505        0.6636548110931514
1590000000               0.7401364493911964       0.5892104736379075
1620000000               0.7966415151476103       0.5085736961919214
1650000000               0.8443896236264256       0.42263973658979137
1680000000               0.8828992127376811       0.33235619866473715
1710000000               0.9117906827436336       0.23871250487824514
1740000000               0.9307897503470492       0.1427290260958665
1770000000               0.9397296602907954       0.04544598663941984
1800000000               0.9385522473246898       -0.05208773702115941
1830000000               0.9273078538001095       -0.14882580692641575
1860000000               0.9061541204092105       -0.24373548891737717
1890000000               0.8753536797185366       -0.3358084821125953
1920000000               0.8352707939725555       -0.42407140769593954
1950000000               0.7863669899363249       -0.5075958601139288
1980000000               0.7291957538932672       -0.5855079341305026
2010000000               0.6643963582830446       -0.6569971550107389
2040000000               0.592686896155997        -0.7213247568197972
2070000000               0.5148565975255519       -0.7778312758147142
2100000000               0.4317574874406999       -0.8259434510721322
2130000000               0.34429541186147505      -0.8651804474451412
2.16E9                   0.25342039560083407      -0.895159423503518
2.19E9                   0.16011620376543548      -0.9156004317264556
2.22E9                   0.06538887336277721      -0.926330515009936
2.25E9                   -0.029746064479446412    -0.9272866037221704
2.28E9                   -0.12427778902368605     -0.9185164236890287
2.31E9                   -0.21721536977196232     -0.9001762658049097
2.34E9                   -0.30760244827908106     -0.8725245766210983
2.37E9                   -0.3945289362969126      -0.8359114414438791
2.4E9                    -0.4771373350460475      -0.7907661126177539
2.43E9                   -0.5546233557269318      -0.7375864700343171
2.46E9                   -0.626233733685063       -0.6769337315995528
2.49E9                   -0.6912658571623305      -0.6094325364607576
2.52E9                   -0.7490723255576288      -0.5357731230212865
2.55E9                   -0.7990701549804362      -0.45671147898941966
2.58E9                   -0.8407519279973322      -0.37306517400523004
2.61E9                   -0.8736960291220024      -0.28570502221963306
2.64E9                   -0.8975743581251696      -0.19554406397772925
2.67E9                   -0.9121572102062925      -0.10352543489097538
2.7E9                    -0.9173157159571418      -0.010610167754582038
2.73E9                   -0.9130223986880026      0.08223457209214023
2.76E9                   -0.8993503058274211      0.17404666101188113
2.79E9                   -0.8764710117350184      0.2638795958591331
2.82E9                   -0.8446516620073425      0.3508125089104417
2.85E9                   -0.8042511521070275      0.4339596377555058
2.88E9                   -0.7557154957046608      0.5124792429941617
2.91E9                   -0.6995724255504346      0.5855819436271139
2.94E9                   -0.6364252705505697      0.6525384244194101
2.97E9                   -0.5669461597465902      0.7126864614024155
3.0E9                    -0.4918686131463         0.765437209515283
3.03E9                   -0.41197958881843305     0.8102806987046318
3.06E9                   -0.3281110640623407      0.8467904905485464
3.09E9                   -0.24113123561026698     0.8746274554661944
3.12E9                   -0.1519354287091723      0.893542640522464
3.15E9                   -0.061436807801311846    0.9033792086264653
3.18E9                   0.029443018331105898     0.9040734410526288
3.21E9                   0.11978340641677364      0.895654805525272
3.24E9                   0.20867401733823848      0.878245100629849
3.27E9                   0.2952240029176295       0.8520566931806336
3.3E9                    0.3785709651589613       0.8173898680257561
3.33E9                   0.45788961546726875      0.774629309955968
3.36E9                   0.5324000607484841       0.7242397362228079
3.39E9                   0.6013756384984316       0.666760697596088
3.42E9                   0.6641502135667449       0.6028005686303316
3.45E9                   0.7201248370382505       0.5330297563613343
3.48E9                   0.7687736548606179       0.45817317367384214
3.51E9                   0.8096489452510203       0.3790020498791972
3.54E9                   0.8423851644614431       0.2963251857573732
3.57E9                   0.8667018953623604       0.21097979915989692
3.6E9                    0.8824056251401381       0.12382214294460057
3.63E9                   0.8893903253398734       0.03571810107059584
3.66E9                   0.8876368628570902       -0.05246602583137527
3.69E9                   0.8772113245887084       -0.1398723484989321
3.72E9                   0.8582623834322352       -0.22565966393636755
3.75E9                   0.8310178667426236       -0.3090110493027452
3.78E9                   0.7957807130453216       -0.3891406907543639
3.81E9                   0.7529245212018267       -0.4652999146897206
3.84E9                   0.7028889030857717       -0.5367824542061416
3.87E9                   0.6461748318286997       -0.6029290623705829
3.9E9                    0.5833401170507625       -0.6631316615007904
3.93E9                   0.5149950335715          -0.7168372649033915
3.96E9                   0.4417980010068881       -0.7635518951801533
3.99E9                   0.3644510980344823       -0.8028446396175553
4.02E9                   0.283695139081426        -0.8343518455690321
4.05E9                   0.20030406563072223      -0.857781308852074
4.08E9                   0.11507850260785323      -0.8729161929795469
4.11E9                   0.028838469502564124     -0.8796183693229835
4.14E9                   -0.05758462703853731     -0.8778308948845872
4.17E9                   -0.14335649284111493     -0.8675794280697535
4.2E9                    -0.22764866865542938     -0.8489724933000904
4.23E9                   -0.3096472186652095      -0.8222006104867712
4.26E9                   -0.3885611815138055      -0.7875343811316706
4.29E9                   -0.46363065105946266     -0.7453216575035368
4.32E9                   -0.5341344189359699      -0.6959839168709835
4.35E9                   -0.599397152792386       -0.6400119321847219
4.38E9                   -0.6587960964453341      -0.5779607923587079
4.41E9                   -0.7117672657334068      -0.510444296313668
4.44E9                   -0.7578110886299971      -0.43812873491676396
4.47E9                   -0.7964974132202475      -0.36172608508420057
4.5E9                    -0.8274697923979106      -0.28198666493480345
4.53E9                   -0.8504489539058295      -0.19969133006381273
4.56E9                   -0.8652353788454733      -0.11564332114296905
4.59E9                   -0.8717109387353082      -0.03065989627942031
4.62E9                   -0.8698395770240652      0.05443610675135892
4.65E9                   -0.8596670603717066      0.13882463713542478
4.68E9                   -0.8413198601191496      0.2216966062345759
4.71E9                   -0.8150032455814478      0.30226178662862463
4.74E9                   -0.780998670213679       0.37975639071168815
4.77E9                   -0.7396605082852112      0.45345031598840024
4.8E9                    -0.6914121626469507      0.5226540526562702
4.83E9                   -0.6367415305891626      0.586725229641915
4.86E9                   -0.5761958021245687      0.6450747350497764
4.89E9                   -0.5103755825069114      0.6971723029247734
4.92E9                   -0.43992837509749627     0.7425514290942071
4.95E9                   -0.365541519001038       0.7808134769921354
4.98E9                   -0.2879347317960188      0.8116308628902618
5.01E9                   -0.20785244671703237     0.8347492638116881
5.04E9                   -0.12605614562736936     0.8499888603682844
5.07E9                   -0.04331686842037712     0.8572446973740112
5.1E9                    0.039591973854386175     0.8564863010242094
5.13E9                   0.12190143213282259      0.8477567153151597
5.16E9                   0.2028535302420208       0.8311710992328103
5.19E9                   0.2817075419885448       0.8069149605525043
5.22E9                   0.35774612840654607      0.7752420128941445
5.25E9                   0.4302813748532687       0.736471568487647
5.28E9                   0.4986606748783391       0.6909853586573407
5.31E9                   0.5622723221914655       0.6392237226006823
5.34E9                   0.6205506395645358       0.5816812011465542
5.37E9                   0.6729805126392435       0.5189016676797267
5.4E9                    0.7191012877184616       0.45147317638131734
5.43E9                   0.7585100913156477       0.38002268851870546
5.46E9                   0.7908646927107054       0.30521076488515214
5.49E9                   0.8158860382453121       0.2277262212199963
5.52E9                   0.8333605424010859       0.14828066865564593
5.55E9                   0.8431421468662447       0.06760282432895397
5.58E9                   0.8451540790608526       -0.01356751640724683
5.61E9                   0.8393901753632389       -0.09448591052443493
5.64E9                   0.8259155951525845       -0.17441009324976128
5.67E9                   0.8048667497782269       -0.25260710523785834
5.7E9                    0.7764503129455094       -0.3283605426625283
5.73E9                   0.7409412648051433       -0.4009776950151287
5.76E9                   0.698680033045568        -0.4697963321380545
5.79E9                   0.6500688925557278       -0.5341909646290882
5.82E9                   0.5955678276524697       -0.5935785115933608
5.85E9                   0.5356900269484456       -0.647423418813048
5.88E9                   0.4709970906963348       -0.6952423280288944
5.91E9                   0.40209393399362536      -0.7366083828558752
5.94E9                   0.3296233132991653       -0.7711551886598204
5.97E9                   0.254259905729943        -0.798580363995072
6.0E9                    0.1767039165115424       -0.8186485654582084
