% Model:              three_layers reality at 0.1mm.mph
% Version:            COMSOL 5.6.0.280
% Date:               Mar 11 2022, 16:09
% Table:              表格 1 - 全局计算 1
% freq (Hz)              real(emw.S11) (1)        imag(emw.S11) (1)
300000000                0.6252405524113738       -0.7509093982544879
330000000                0.5576043801268146       -0.8022872411965317
360000000                0.4858418108492217       -0.8476086086041905
390000000                0.4104880131625279       -0.8865454899809333
420000000                0.3321038410674879       -0.9188166277020792
450000000                0.25127288554605604      -0.944189225498381
480000000                0.1685970833023042       -0.9624810098118592
510000000                0.08469227429531152      -0.973561806187602
540000000                1.836272618376711E-4     -0.9773546971427228
570000000                -0.08429902553323264     -0.9738367566538128
600000000                -0.16812590809699338     -0.9630393582889479
630000000                -0.2506720341678406      -0.9450480569502855
660000000                -0.33132191954791845     -0.9200020461126309
690000000                -0.4094742333453155      -0.8880931954066078
720000000                -0.4845463520032791      -0.8495646761399174
750000000                -0.5559787794766206      -0.8047091856198844
780000000                -0.6232393982398281      -0.7538667833471993
810000000                -0.6858275173082293      -0.6974223559020509
840000000                -0.7432776831901324      -0.6358027304901962
870000000                -0.795163224688352       -0.5694734586638679
900000000                -0.8410995018582051      -0.4989352954938777
930000000                -0.8807468319089031      -0.424720402825767
960000000                -0.913813069540622       -0.3473883050648849
990000000                -0.940055819334909       -0.2675216311550192
1020000000               -0.959284263018112       -0.1857216756545079
1050000000               -0.9713605862407798      -0.10260381488747193
1080000000               -0.9762009934947677      -0.01879281532552079
1110000000               -0.9737763032856297      0.06508192865584421
1140000000               -0.9641121189792847      0.14839118890892916
1170000000               -0.947288574573483       0.2305106912584967
1200000000               -0.9234396581412275      0.3108258584169746
1230000000               -0.8927521192759154      0.38873646989327576
1260000000               -0.8554639703551561      0.4636612025144977
1290000000               -0.811862594917748       0.5350420148802674
1320000000               -0.7622824794248673      0.6023483423523783
1350000000               -0.7071025880872592      0.6650810690296147
1380000000               -0.6467434029340201      0.7227762470942584
1410000000               -0.5816636539697745      0.7750085350617639
1440000000               -0.5123567669678682      0.8213943291779882
1470000000               -0.43934705779981975     0.8615945655793293
1500000000               -0.36318570481789286     0.8953171728170957
1530000000               -0.28444653128751185     0.9223191582947102
1560000000               -0.20372163219559944     0.94240831431107
1590000000               -0.12161687953236094     0.9554445334764682
1620000000               -0.038747341208507716    0.9613407258075001
1650000000               0.04426735071823806      0.9600633332121599
1680000000               0.12680764762666571      0.9516324403375482
1710000000               0.20825871235116492      0.9361214835510121
1740000000               0.2880149935444374       0.913656563073668
1770000000               0.3654847124546315       0.8844153660373326
1800000000               0.44009422979236756      0.8486257110056358
1830000000               0.511292261327835        0.8065637272011014
1860000000               0.578553912511999        0.7585516839697226
1890000000               0.6413845035738022       0.7049554886382433
1920000000               0.6993231591043003       0.6461818726663433
1950000000               0.7519461373909465       0.5826752882132927
1980000000               0.7988698770395559       0.5149145389990751
2010000000               0.8397537406916066       0.4434091707472896
2040000000               0.8743024375194381       0.3686956482927173
2070000000               0.9022681090339127       0.291333347047262
2100000000               0.9234520644985711       0.21190038830773317
2130000000               0.9377061551342245       0.13098934812439733
2.16E9                   0.9449337785086223       0.049202870508620745
2.19E9                   0.9450905071762812       -0.03285078402345474
2.22E9                   0.938184337997647        -0.11456222314567595
2.25E9                   0.9242755612214524       -0.19532540899623974
2.28E9                   0.9034762509163902       -0.27454211482236185
2.31E9                   0.8759493807903862       -0.35162632134116495
2.34E9                   0.8419075717807779       -0.4260085219659523
2.37E9                   0.8016114800334855       -0.4971399079733086
2.4E9                    0.7553678355369133       -0.5644964048763901
2.43E9                   0.7035271429595842       -0.6275825329762972
2.46E9                   0.6464810569767437       -0.6859350646608648
2.49E9                   0.5846594450647843       -0.7391264502552254
2.52E9                   0.5185271521944038       -0.7867679818464163
2.55E9                   0.4485804879473399       -0.8285126593213392
2.58E9                   0.37534346727299917      -0.8640577218864872
2.61E9                   0.2993638517043166       -0.8931468144261037
2.64E9                   0.22120904842150768      -0.9155717777136645
2.67E9                   0.1414619179972254       -0.9311740772314873
2.7E9                    0.060716515469403556     -0.939845899449926
2.73E9                   -0.02042623889993749     -0.9415309319503087
2.76E9                   -0.10136296916677204     -0.9362248135267335
2.79E9                   -0.181492323556261       -0.9239752177840483
2.82E9                   -0.26021948594469946     -0.9048815352512339
2.85E9                   -0.3369606639873151      -0.8790941379895382
2.88E9                   -0.4111474988338576      -0.8468132312375003
2.91E9                   -0.48223135066846323     -0.8082873088179507
2.94E9                   -0.5496874229974462      -0.7638112333749842
2.97E9                   -0.6130186953237948      -0.713723962558118
3.0E9                    -0.6717596362223421      -0.6584059420104528
3.03E9                   -0.725479670917845       -0.5982761861887157
3.06E9                   -0.7737863778657714      -0.5337890697110953
3.09E9                   -0.8163283906910709      -0.46543085360203984
3.12E9                   -0.8527979833214989      -0.39371597309365136
3.15E9                   -0.8829333184421838      -0.3191831156808812
3.18E9                   -0.906520341949586       -0.2423911200446067
3.21E9                   -0.9233943088979745      -0.1639147280700425
3.24E9                   -0.9334409294214006      -0.0843402236619934
3.27E9                   -0.9365971264860452      -0.004260992396072756
3.3E9                    -0.9328514002713156      0.07572696245917145
3.33E9                   -0.922243797493834       0.15502951241603427
3.36E9                   -0.9048654871413414      0.23305886961649805
3.39E9                   -0.8808579473598146      0.30923799075119346
3.42E9                   -0.8504117713941302      0.3830048851635461
3.45E9                   -0.813765103583437       0.45381679364971106
3.48E9                   -0.7712017193116564      0.5211542061332075
3.51E9                   -0.7230487657737714      0.5845246875109232
3.54E9                   -0.6696741828379011      0.6434664832499761
3.57E9                   -0.6114838260052329      0.6975518778498271
3.6E9                    -0.5489183154144517      0.7463902819795778
3.63E9                   -0.48244963705363253     0.7896310262107646
3.66E9                   -0.41257752383298146     0.8269658421297947
3.69E9                   -0.339825645680404       0.8581310142182814
3.72E9                   -0.2647376387776736      0.8829091887514832
3.75E9                   -0.18787300489874748     0.9011308287281218
3.78E9                   -0.10980291207559212     0.9126753066258438
3.81E9                   -0.031105928482744894    0.9174716292751495
3.84E9                   0.04763627885775304      0.9154987918515278
3.87E9                   0.1258432485816563       0.906785760387497
3.9E9                    0.20294000080711694      0.8914110847591005
3.93E9                   0.27836125231265324      0.8695021468776372
3.96E9                   0.35155553961195063      0.8412340516535937
3.99E9                   0.4219892188692578       0.806828171509909
4.02E9                   0.48915031290594463      0.7665503584603947
4.05E9                   0.5525521774505826       0.7207088409702451
4.08E9                   0.611736961465708        0.669651825436939
4.11E9                   0.6662788394235932       0.6137648240928011
4.14E9                   0.715786996674607        0.5534677318188268
4.17E9                   0.7599083513231684       0.48921167465328036
4.2E9                    0.7983299981850419       0.42147565209074483
4.23E9                   0.8307813607412481       0.35076299586440113
4.26E9                   0.8570360382316213       0.2775976681565699
4.29E9                   0.8769133356796246       0.20252042411437066
4.32E9                   0.890279466784045        0.12608486475652936
4.35E9                   0.8970484219382975       0.04885340781551337
4.38E9                   0.8971824964815035       -0.02860679586414221
4.41E9                   0.8906924765546667       -0.1057279727800675
4.44E9                   0.8776374817652851       -0.18194583698163086
4.47E9                   0.8581244651986879       -0.2567036732891859
4.5E9                    0.8323073726898728       -0.32945636598777495
4.53E9                   0.800385965026451        -0.39967434535019475
4.56E9                   0.7626043090568051       -0.466847423382664
4.59E9                   0.7192489466542895       -0.5304884899111183
4.62E9                   0.6706467535195817       -0.5901370408319568
4.65E9                   0.6171625031281466       -0.6453625110070981
4.68E9                   0.5591961539744222       -0.6957673862908678
4.71E9                   0.4971798808670704       -0.7409900712211647
4.74E9                   0.43157487307416886      -0.7807074914104088
4.77E9                   0.36286792338828244      -0.8146374124255514
4.8E9                    0.2915678331623674       -0.8425404592600251
4.83E9                   0.21820165900123475      -0.864221822642673
4.86E9                   0.14331082701788098      -0.8795326402653418
4.89E9                   0.06744714177809996      -0.8883710423902018
4.92E9                   -0.008831282321336965    -0.8906828530380078
4.95E9                   -0.08496413808462809     -0.886461939821376
4.98E9                   -0.16039306060632993     -0.8757502078351014
5.01E9                   -0.23456574902085922     -0.8586372357916823
5.04E9                   -0.30694004338372327     -0.8352595556217297
5.07E9                   -0.37698792428915584     -0.8057995800095461
5.1E9                    -0.44419940390334445     -0.7704841855702799
5.13E9                   -0.5080862773564828      -0.7295829627801917
5.16E9                   -0.568185705084556       -0.68340614695447
5.19E9                   -0.6240635985996057      -0.632302247457693
5.22E9                   -0.6753177844174102      -0.5766553948357008
5.25E9                   -0.7215809236352999      -0.5168824270086881
5.28E9                   -0.7625231666310102      -0.4534297368576361
5.31E9                   -0.7978545241534273      -0.38676990414409157
5.34E9                   -0.8273269370138284      -0.3173981360227329
5.37E9                   -0.8507360278634096      -0.24582854182988614
5.4E9                    -0.8679225199673856      -0.17259027038532104
5.43E9                   -0.8787733103910922      -0.09822354041738555
5.46E9                   -0.8832221884627087      -0.023275596583629984
5.49E9                   -0.8812501941545708      0.051703374895146925
5.52E9                   -0.8728856152988016      0.12616433679473574
5.55E9                   -0.8582036266157559      0.19956346382432866
5.58E9                   -0.8373255774078617      0.27136614512385904
5.61E9                   -0.8104179382373643      0.34105089580926323
5.64E9                   -0.7776909196284448      0.40811314923005226
5.67E9                   -0.7393967774680495      0.47206890467176593
5.7E9                    -0.6958278203199527      0.5324582076351181
5.73E9                   -0.6473141335722276      0.5888484411839582
5.76E9                   -0.5942210353743375      0.6408374066904008
5.79E9                   -0.5369462806458192      0.6880561712403915
5.82E9                   -0.47591703289008847     0.7301716581626356
5.85E9                   -0.4115866282955731      0.7668889582514992
5.88E9                   -0.3444311609520391      0.7979533430158879
5.91E9                   -0.2749459207488867      0.8231519665394859
5.94E9                   -0.20364171526647168     0.842315248356938
5.97E9                   -0.13104110546140949     0.8553179338431351
6.0E9                    -0.05767458232879097     0.862079831331419
