% Model:              cali 1.19 0.25mm.mph
% Version:            COMSOL 5.6.0.280
% Date:               Feb 18 2022, 15:25
% Table:              表格 1 - 全局计算 1
% freq (Hz)              real(emw.S11) (1)        imag(emw.S11) (1)
300000000                0.6609031413614788       -0.7280992426326507
330000000                0.5983015483383216       -0.7807535948289696
360000000                0.5315579066727419       -0.8280426070389905
390000000                0.46113041626901236      -0.869641331412503
420000000                0.387502750508628        -0.9052638728158353
450000000                0.311180731382067        -0.9346653608901656
480000000                0.23268885724053678      -0.9576436510187261
510000000                0.15256670219774213      -0.9740407394294908
540000000                0.07136520921325502      -0.9837438803180295
570000000                -0.010357100142531018    -0.9866863954730425
600000000                -0.09203797407872277     -0.9828481688898094
630000000                -0.1731153113400005      -0.9722558212773983
660000000                -0.2530310480719008      -0.9549825615978517
690000000                -0.3312350237035198      -0.9311477150912572
720000000                -0.40718879906925676     -0.90091592951222
750000000                -0.48036939936877376     -0.8644960637993251
780000000                -0.5502729556041329      -0.822139765560107
810000000                -0.6164182178161797      -0.7741397463711627
840000000                -0.6783499148425837      -0.7208277659656716
870000000                -0.7356419359875075      -0.6625723386345751
900000000                -0.7879003107610035      -0.5997761777761882
930000000                -0.8347659650611647      -0.5328733958520954
960000000                -0.8759172327475415      -0.46232647991658826
990000000                -0.9110721041794865      -0.38862306382203404
1020000000               -0.9399901946704813      -0.3122725204222025
1050000000               -0.9624744180978386      -0.23380239839116446
1080000000               -0.978372353101086       -0.15375472970568393
1110000000               -0.9875772917773071      -0.07268223443728578
1140000000               -0.9900289630148708      0.008855548987610344
1170000000               -0.9857139253284525      0.09029617975193692
1200000000               -0.9746656265369152      0.17107824829293375
1230000000               -0.9569641302371098      0.2506452983728897
1260000000               -0.9327355116192166      0.32844970920750616
1290000000               -0.902150927743754       0.403956509094709
1320000000               -0.8654253698541949      0.476647093011118
1350000000               -0.8228161077755808      0.5460228172361484
1380000000               -0.7746208387470448      0.6116084452928853
1410000000               -0.7211755551262374      0.6729554208725834
1440000000               -0.6628521476971271      0.7296449445453083
1470000000               -0.6000557628095096      0.7812908332443177
1500000000               -0.5332219336762832      0.8275421427893204
1530000000               -0.46281350735579463     0.8680855360425062
1560000000               -0.38931739043792457     0.9026473811276023
1590000000               -0.3132411374276446      0.930995566389616
1620000000               -0.2351094069376264      0.9529410208625789
1650000000               -0.15546031108065464     0.9683389314367276
1680000000               -0.07484168441347859     0.9770896499709618
1710000000               0.006192701304163429     0.9791392860249672
1740000000               0.0870869500516287       0.9744799830661294
1770000000               0.167286855836063        0.9631498782349577
1800000000               0.2462436923243903       0.9452327479173619
1830000000               0.32341795219355873      0.9208573434800185
1860000000               0.3982830113472391       0.8901964235278522
1890000000               0.470328693791191        0.8534654909999047
1920000000               0.5390647139774482       0.8109212452358577
1950000000               0.6040239744265254       0.7628597608867203
1980000000               0.6647656975967444       0.7096144071741581
2010000000               0.720878372247071        0.651553522494511
2040000000               0.771982495882363        0.5890778607558772
2070000000               0.8177330962439808       0.5226178271677034
2100000000               0.8578220164000175       0.4526305222768458
2130000000               0.8919799495140875       0.3795966140539896
2.16E9                   0.9199782108622767       0.3040170589862181
2.19E9                   0.941630236556987        0.22640969350160833
2.22E9                   0.956792799872941        0.14730571818878135
2.25E9                   0.9653669379683216       0.06724609746600413
2.28E9                   0.9672985834357501       -0.013222101990283164
2.31E9                   0.9625788969158425       -0.09354941050108123
2.34E9                   0.9512442987729934       -0.17318766855251877
2.37E9                   0.9333761996403898       -0.2515937299030612
2.4E9                    0.9091004314074393       -0.32823313094857415
2.43E9                   0.8785863821012971       -0.4025837023503771
2.46E9                   0.8420458398379506       -0.4741390997076718
2.49E9                   0.7997315528784971       -0.5424122300752112
2.52E9                   0.7519355146147568       -0.6069385517774082
2.55E9                   0.6989869839615903       -0.6672792257506229
2.58E9                   0.6412502534931974       -0.7230240971834294
2.61E9                   0.5791221791712736       -0.773794487382629
2.64E9                   0.5130294873268774       -0.8192457766028425
2.67E9                   0.4434258758355668       -0.859069760014878
2.7E9                    0.3707889283450612       -0.8929967599550646
2.73E9                   0.29561686141841276      -0.9207974793863795
2.76E9                   0.2184251260961867       -0.9422845828667641
2.79E9                   0.13974288644571137      -0.9573139931743937
2.82E9                   0.06010939875716286      -0.9657858935906282
2.85E9                   -0.019929684049759366    -0.9676454278283307
2.88E9                   -0.09982605767019469     -0.9628830916619222
2.91E9                   -0.17903253548609116     -0.951534812394889
2.94E9                   -0.2570068154721094      -0.9336817144455468
2.97E9                   -0.33321521864991865     -0.9094495714680106
3.0E9                    -0.4071363727717732      -0.8790079476220062
3.03E9                   -0.47826481507688606     -0.8425690328249336
3.06E9                   -0.5461144881703823      -0.8003861791378375
3.09E9                   -0.61022210376851        -0.7527521476767826
3.12E9                   -0.6701503496493338      -0.6999970778210256
3.15E9                   -0.7254909163683843      -0.6424861926153969
3.18E9                   -0.7758673214108649      -0.5806172564969264
3.21E9                   -0.8209375100902379      -0.514817803337124
3.24E9                   -0.8603962141124994      -0.44554215461244334
3.27E9                   -0.893977050479278       -0.37326824925567087
3.3E9                    -0.9214543455046933      -0.2984943079627902
3.33E9                   -0.9426446706222453      -0.2217353562000151
3.36E9                   -0.9574080788843861      -0.14351963121107744
3.39E9                   -0.9656490333428484      -0.06438489913321147
3.42E9                   -0.9673170208056023      0.01512529075271242
3.45E9                   -0.962406846959436       0.09446538734304843
3.48E9                   -0.9509586113079411      0.17309162689641694
3.51E9                   -0.9330573628931331      0.2504658025067419
3.54E9                   -0.9088324402868946      0.32605898639125264
3.57E9                   -0.8784565017405616      0.39935517830582506
3.6E9                    -0.8421442537763124      0.4698548538882011
3.63E9                   -0.8001508887257126      0.5370783878807551
3.66E9                   -0.7527702438093511      0.600569328342833
3.69E9                   -0.7003326963523441      0.6598974992244955
3.72E9                   -0.6432028114175214      0.7146619103246842
3.75E9                   -0.5817767598510643      0.7644934551082354
3.78E9                   -0.5164795261174534      0.80905737867295
3.81E9                   -0.44776192662422054     0.8480554999105205
3.84E9                   -0.3760974604165432      0.8812281737663407
3.87E9                   -0.301979014999008       0.9083559815215401
3.9E9                    -0.22591545097397292     0.9292611389574532
3.93E9                   -0.14842808974787758     0.9438086143885549
3.96E9                   -0.07004712901474086     0.951906950643166
3.99E9                   0.008691989025231096     0.9535087871939849
4.02E9                   0.08725223158892828      0.9486110807633857
4.05E9                   0.16509862654976928      0.9372550248631328
4.08E9                   0.24170188624450512      0.919525670796223
4.11E9                   0.3165419798586191       0.8955512546734545
4.14E9                   0.3891116308599758       0.8655022369486395
4.17E9                   0.45891971699594036      0.8295900627724269
4.2E9                    0.5254945513372938       0.7880656531038568
4.23E9                   0.5883870238807285       0.7412176380354745
4.26E9                   0.647173584465686        0.6893703450637894
4.29E9                   0.7014590488315297       0.6328815562422436
4.32E9                   0.75087921076803         0.5721400492450103
4.35E9                   0.7951032443900985       0.5075629384722455
4.38E9                   0.8338358817171084       0.43959283336813515
4.41E9                   0.8668193518842386       0.36869483231502526
4.44E9                   0.893835069722843        0.2953533714536714
4.47E9                   0.9147050628666517       0.2200689489726941
4.5E9                    0.9292931283101006       0.1433547461294433
4.53E9                   0.9375057110678157       0.06573316719997828
4.56E9                   0.9392924995547465       -0.012267679143258032
4.59E9                   0.9346467341592529       -0.09011753416241156
4.62E9                   0.9236052273225547       -0.1672875562699252
4.65E9                   0.9062480951156211       -0.24325387842648963
4.68E9                   0.8826982018600416       -0.31750113315819334
4.71E9                   0.8531203207919202       -0.3895259228641239
4.74E9                   0.8177200152450365       -0.4588402131093364
4.77E9                   0.7767422464321694       -0.5249746266853846
4.8E9                    0.730469715626176        -0.5874816164154478
4.83E9                   0.679220950477562        -0.6459384949475839
4.86E9                   0.6233481471916662       -0.6999503004052298
4.89E9                   0.5632347823102893       -0.749152477636981
4.92E9                   0.4992930098014659       -0.7932133560047454
4.95E9                   0.43196086089846625      -0.8318364061841624
4.98E9                   0.3616992657022543       -0.8647622601582571
5.01E9                   0.2889889166956891       -0.8917704805378591
5.04E9                   0.21432699511565492      -0.9126810672378112
5.07E9                   0.13822378168077593      -0.9273556912671413
5.1E9                    0.061199173510859954     -0.9356986468814343
5.13E9                   -0.01622087043762335     -0.93765751455633
5.16E9                   -0.0935079322724743      -0.9332235283905999
5.19E9                   -0.17013476223279123     -0.9224316429378594
5.22E9                   -0.24557890436921756     -0.9053602963370804
5.25E9                   -0.3193262943822841      -0.8821308690747893
5.28E9                   -0.39087480240290234     -0.8529068406862179
5.31E9                   -0.4597376937699326      -0.8178926498645517
5.34E9                   -0.5254469815988626      -0.7773322665639952
5.37E9                   -0.5875566464927736      -0.7315074873510878
5.4E9                    -0.6456457004633126      -0.6807359674572727
5.43E9                   -0.699321074135766       -0.6253690044884235
5.46E9                   -0.7482203079233893      -0.565789089906714
5.49E9                   -0.792014029297426       -0.5024072452421077
5.52E9                   -0.8304081993341372      -0.4356601608976564
5.55E9                   -0.8631461126265064      -0.3660071565314649
5.58E9                   -0.8900101355821999      -0.29392698348341045
5.61E9                   -0.9108231694011089      -0.2199144913823426
5.64E9                   -0.9254498256815217      -0.14447718296322978
5.67E9                   -0.9337973048484015      -0.06813168288222907
5.7E9                    -0.9358159703784571      0.008599852196518277
5.73E9                   -0.9314996150694173      0.08519335398973552
5.76E9                   -0.9208854191585382      0.16112646508320114
5.79E9                   -0.9040536035620333      0.2358821358509541
5.82E9                   -0.8811267844540259      0.30895216970671896
5.85E9                   -0.8522690374992772      0.3798406925518323
5.88E9                   -0.8176846812613967      0.4480675241709013
5.91E9                   -0.7776167899955191      0.5131714306079157
5.94E9                   -0.7323454467139764      0.5747132372246075
5.97E9                   -0.6821857484410154      0.6322787825022236
6.0E9                    -0.6274855771529874      0.6854816929333795
