% Model:              three_layers reality at 0.1mm.mph
% Version:            COMSOL 5.6.0.280
% Date:               Mar 1 2022, 09:04
% Table:              表格 1 - 全局计算 1
% freq (Hz)              real(emw.S11) (1)        imag(emw.S11) (1)
300000000                0.5570733257663891       -0.7521258321607799
330000000                0.4859015641414017       -0.7983404213723917
360000000                0.41105604272917007      -0.8379709784361797
390000000                0.3331155272480665       -0.8707204780578803
420000000                0.2526889042109495       -0.8963421436661112
450000000                0.17040941559883455      -0.9146428968005393
480000000                0.08692892092821083      -0.9254860273740392
510000000                0.0029121411749226667    -0.9287931820099928
540000000                -0.08096912776917407     -0.9245457235680594
570000000                -0.16404182418200275     -0.9127854906815325
600000000                -0.2456374293250809      -0.8936149734300738
630000000                -0.32509774379264417     -0.8671969152590093
660000000                -0.40178059202907623     -0.8337533495893535
690000000                -0.4750654113992734      -0.7935640802939455
720000000                -0.544358678081          -0.7469646181975679
750000000                -0.6090991213060235      -0.6943435893099044
780000000                -0.6687626759807407      -0.6361396354444994
810000000                -0.7228671245272624      -0.572837832939295
840000000                -0.7709763803733333      -0.5049656603660669
870000000                -0.8127043676010663      -0.43308855181559536
900000000                -0.8477184548357066      -0.3578050773739709
930000000                -0.8757424057644103      -0.27974179704158025
960000000                -0.896558813218665       -0.19954783940670828
990000000                -0.9100109898086514      -0.1178892593589349
1020000000               -0.9160042940042316      -0.03544323282155237
1050000000               -0.9145068772889413      0.04710785158390954
1080000000               -0.9055498448979444      0.12908234238674965
1110000000               -0.88922682977043        0.20980525502122094
1140000000               -0.865692986440418       0.28861411978303064
1170000000               -0.8351634185489387      0.36486468815326306
1200000000               -0.7979110604648896      0.4379364395307973
1230000000               -0.7542640397026501      0.507237833947708
1260000000               -0.7046025527858872      0.5722112598092707
1290000000               -0.6493552922792931      0.6323376305520604
1320000000               -0.5889954673024426      0.6871405890502129
1350000000               -0.5240364635407698      0.7361902842661523
1380000000               -0.45502719164490507     0.7791066904878476
1410000000               -0.3825471752384737      0.8155624454485754
1440000000               -0.30720143072516265     0.8452851900151862
1470000000               -0.22961519187743057     0.8680593979496184
1500000000               -0.15042853175314674     0.8837276903423638
1530000000               -0.07029093361922599     0.8921916348931431
1560000000               0.010144139108777851     0.8934120355662922
1590000000               0.0902246259890278       0.8874087230191426
1620000000               0.16930516044896873      0.8742598606014362
1650000000               0.2467522259578793       0.8541007847017478
1680000000               0.3219491387396339       0.8271224015226477
1710000000               0.3943008209800226       0.7935691653061255
1740000000               0.46323833280022503      0.7537366652794253
1770000000               0.528223134242818        0.7079688505623625
1800000000               0.5887510525464281       0.6566549235191563
1830000000               0.6443559331884399       0.600225933133299
1860000000               0.6946129567004053       0.5391511004841475
1890000000               0.7391416064182462       0.47393390877093994
1920000000               0.7776082755604169       0.4051079902371935
1950000000               0.8097285049655583       0.33323284207804016
1980000000               0.8352688458206097       0.2588894028155526
2010000000               0.8540483445423868       0.18267551975324164
2040000000               0.8659396499198597       0.1052013365265395
2070000000               0.870869745308088        0.027084627504116516
2100000000               0.8688203108529315       -0.051053897765118574
2130000000               0.8598277215650413       -0.12859530216707926
2.16E9                   0.8439826846893091       -0.20492712999790552
2.19E9                   0.8214295113695578       -0.27944811430697536
2.22E9                   0.7923649996132316       -0.3515728837188308
2.25E9                   0.7570368769469984       -0.42073666035860113
2.28E9                   0.7157417203802403       -0.48639990243322206
2.31E9                   0.6688222664099617       -0.5480527675145442
2.34E9                   0.6166640911487928       -0.6052191749500478
2.37E9                   0.5596918091723474       -0.6574602040190367
2.4E9                    0.4983651447807084       -0.7043766874835266
2.43E9                   0.4331752907178807       -0.7456111628523943
2.46E9                   0.364641737497827        -0.7808496332918446
2.49E9                   0.293309344626196        -0.8098235868928166
2.52E9                   0.21974517135914287      -0.8323123866510926
2.55E9                   0.14453468884858262      -0.8481457604896827
2.58E9                   0.06827731130163332      -0.8572059815535701
2.61E9                   -0.008418564474819057    -0.8594294469439503
2.64E9                   -0.08494075477520227     -0.8548075604293799
2.67E9                   -0.16067852324548487     -0.8433869584151895
2.7E9                    -0.2350277439744849      -0.8252691618453764
2.73E9                   -0.3073959442207674      -0.8006097262511788
2.76E9                   -0.3772072041045633      -0.7696169367854042
2.79E9                   -0.44390689563455066     -0.7325500745403168
2.82E9                   -0.5069662392550155      -0.6897172694147836
2.85E9                   -0.5658866498982675      -0.6414729517411485
2.88E9                   -0.6202038401253077      -0.5882149163024571
2.91E9                   -0.6694916450688339      -0.5303810165083024
2.94E9                   -0.713365533422901       -0.4684455113961488
2.97E9                   -0.7514857697144302      -0.40291509321277763
3.0E9                    -0.7835601953114137      -0.3343246282504873
3.03E9                   -0.809346598885889       -0.2632326480331369
3.06E9                   -0.8286546510902982      -0.19021663178682505
3.09E9                   -0.841347382830715       -0.1158681244526843
3.12E9                   -0.8473421917449081      -0.040787736765410136
3.15E9                   -0.8466113669190944      0.034419924160592384
3.18E9                   -0.8391821276068685      0.10915134477747775
3.21E9                   -0.8251361772931599      0.1828091666144744
3.24E9                   -0.8046087798234602      0.2548071713177472
3.27E9                   -0.7777873692500656      0.3245751428469603
3.3E9                    -0.744909709386462       0.3915635625913971
3.33E9                   -0.7062616228337388      0.4552480954335373
3.36E9                   -0.6621743125476005      0.51513382709152
3.39E9                   -0.6130213019528441      0.5707592153282791
3.42E9                   -0.5592150226817582      0.6216997193270551
3.45E9                   -0.5012030822665201      0.6675710734256302
3.48E9                   -0.43946424813590607     0.7080321731813876
3.51E9                   -0.3745041888970618      0.742787544360011
3.54E9                   -0.3068510192952507      0.7715893691879927
3.57E9                   -0.23705070059981362     0.7942390499683111
3.6E9                    -0.16566235266489962     0.8105882980500216
3.63E9                   -0.09325353640493575     0.8205397458883292
3.66E9                   -0.0203955649501129      0.82404709058113
3.69E9                   0.05234110167412603      0.8211147873807088
3.72E9                   0.12439132935031286      0.8117973202425633
3.75E9                   0.1951996080636194       0.7961980831459237
3.78E9                   0.2642241414970165       0.7744679112365658
3.81E9                   0.3309407027632471       0.746803305115116
3.84E9                   0.3948462422830925       0.713444394157364
3.87E9                   0.4554622470226038       0.6746726834712513
3.9E9                    0.5123378635453556       0.6308086217284326
3.93E9                   0.5650528066455135       0.5822090130626806
3.96E9                   0.6132200762454794       0.5292642783390321
3.99E9                   0.6564884962331207       0.47239555466907324
4.02E9                   0.6945450718238156       0.41205161320151895
4.05E9                   0.727117142785584        0.3487055771268042
4.08E9                   0.753974294677861        0.2828514339568238
4.11E9                   0.7749299837953402       0.21500035418396257
4.14E9                   0.7898428349479218       0.14567684681046683
4.17E9                   0.7986175826208868       0.0754147957705743
4.2E9                    0.8012056413383633       0.004753427703701139
4.23E9                   0.7976053061591941       -0.06576673982493972
4.26E9                   0.7878615956420071       -0.13560792759574666
4.29E9                   0.7720657554957608       -0.2042390694750299
4.32E9                   0.750354441356571        -0.2711397101439909
4.35E9                   0.7229085952343635       -0.33580381003358534
4.38E9                   0.6899520246517146       -0.3977434439539267
4.41E9                   0.6517496888329213       -0.456492378371307
4.44E9                   0.6086056942459795       -0.5116095081926954
4.47E9                   0.560861002878694        -0.5626821291968308
4.5E9                    0.5088908603343892       -0.6093290185456276
4.53E9                   0.45310195613753734      -0.6512032940247923
4.56E9                   0.39392933471700964      -0.6879950228941151
4.59E9                   0.33183308119903254      -0.7194335538751416
4.62E9                   0.2672948108381338       -0.7452895502296019
4.65E9                   0.2008139936512052       -0.7653767078607121
4.68E9                   0.1329041458116663       -0.7795531487764225
4.71E9                   0.06408891660401626      -0.7877224854659173
4.74E9                   -0.005101904955757242    -0.7898345541053916
4.77E9                   -0.07413644405910258     -0.7858858130107906
4.8E9                    -0.1424848362709394      -0.7759193981978236
4.83E9                   -0.20962334448974673     -0.7600248226414981
4.86E9                   -0.2750384675760992      -0.7383373030994583
4.89E9                   -0.338231001812017       -0.7110367005689584
4.92E9                   -0.39872000753328135     -0.6783460681679188
4.95E9                   -0.4560466283364947      -0.6405298121392757
4.98E9                   -0.5097777107169288      -0.5978914853349251
5.01E9                   -0.5595091779324796      -0.5507712453086261
5.04E9                   -0.6048691226463656      -0.49954301858599703
5.07E9                   -0.6455205964516229      -0.44461141696218665
5.1E9                    -0.6811640883404262      -0.38640844939929003
5.13E9                   -0.7115396947460821      -0.32539006450657304
5.16E9                   -0.7364289874940768      -0.26203254592038555
5.19E9                   -0.7556565807528206      -0.19682877105586982
5.22E9                   -0.769091385510021       -0.13028433867052636
5.25E9                   -0.7766475261391493      -0.06291357671408136
5.28E9                   -0.7782848864113561      0.004764542062512199
5.31E9                   -0.7740092576546114      0.07223052974975532
5.34E9                   -0.7638720793414813      0.13896849796360577
5.37E9                   -0.7479697851622614      0.20447019690139526
5.4E9                    -0.7264427860676199      0.2682389306151755
5.43E9                   -0.6994741290758963      0.3297933196712755
5.46E9                   -0.6672878659451723      0.3886709001454188
5.49E9                   -0.6301471534806027      0.4444315577666793
5.52E9                   -0.5883520934188009      0.4966607964745531
5.55E9                   -0.5422373097809959      0.5449728331297612
5.58E9                   -0.49216925790222893     0.5890134985379785
5.61E9                   -0.43854326255384585     0.6284629126952525
5.64E9                   -0.3817802923207812      0.6630378919427592
5.67E9                   -0.3223234923252396      0.692494040466033
5.7E9                    -0.2606345156754114      0.7166274806584192
5.73E9                   -0.19718971146204167     0.7352761887095518
5.76E9                   -0.13247623757386312     0.7483209228101685
5.79E9                   -0.06698816439742945     0.7556857562886251
5.82E9                   -0.0012226196570047422   0.7573382477154098
5.85E9                   0.06432399858469964      0.7532892863284095
5.88E9                   0.12915973378737125      0.743592642580145
5.91E9                   0.19280070871771376      0.7283442366150367
5.94E9                   0.2547746854705483       0.7076811220802276
5.97E9                   0.31462453141723723      0.6817801757988922
6.0E9                    0.3719115620843626       0.6508564865897399
