% Model:              three_layers reality at 0.1mm.mph
% Version:            COMSOL 5.6.0.280
% Date:               Feb 23 2022, 16:24
% Table:              表格 1 - 全局计算 1
% freq (Hz)              real(emw.S11) (1)        imag(emw.S11) (1)
300000000                0.5377990601398015       -0.7392223959955498
330000000                0.46748986444339863      -0.7838042831027819
360000000                0.3936362869347857       -0.8218622717826334
390000000                0.316816183556174        -0.8531050328533416
420000000                0.23763715303846508      -0.8772935399167832
450000000                0.15673037913711987      -0.8942439086952968
480000000                0.07474464704875494      -0.9038296128865252
510000000                -0.00765956813474844     -0.9059831144097985
540000000                -0.08981598574592109     -0.9006969261420452
570000000                -0.17105838451172578     -0.8880241146219311
600000000                -0.25072643652093723     -0.8680782458048552
630000000                -0.3281714817902831      -0.8410327761551429
660000000                -0.40276220869938745     -0.8071198927825756
690000000                -0.47389019728162635     -0.766628809564275
720000000                -0.5409752794961777      -0.7199035304292697
750000000                -0.6034706693174714      -0.6673400951859211
780000000                -0.6608678125176306      -0.6093833297782975
810000000                -0.7127009090257875      -0.5465231271360668
840000000                -0.7585510606558353      -0.4792902913818038
870000000                -0.7980500005283223      -0.4082519830335478
900000000                -0.8308833636366432      -0.33400680851592623
930000000                -0.8567934628503064      -0.2571796014953556
960000000                -0.875581539225893       -0.17841594882334855
990000000                -0.8871094621232081      -0.09837651585081837
1020000000               -0.8913008600318494      -0.017731230799743408
1050000000               -0.8881416706313896      0.06284661230994189
1080000000               -0.877680104977244       0.1426862701169043
1110000000               -0.8600260281031377      0.22112542388062614
1140000000               -0.8353497653775727      0.2975159504122423
1170000000               -0.8038803508117381      0.371229530462451
1200000000               -0.7659032401014991      0.4416630380393203
1230000000               -0.7217575174503578      0.5082436572548955
1260000000               -0.6718326305913982      0.5704336779319829
1290000000               -0.6165646936941229      0.6277349252315902
1320000000               -0.5564324017552105      0.6796927845792168
1350000000               -0.4919526038223392      0.7258997883304974
1380000000               -0.4236755845919804      0.7659987370622497
1410000000               -0.3521801065269015      0.7996853337933069
1440000000               -0.27806826452229        0.826710316508412
1470000000               -0.201960206514776       0.8468810794797634
1500000000               -0.12448877202117502     0.8600627804021159
1530000000               -0.04629409984072766     0.8661789355264017
1560000000               0.031981745705580704     0.8652115102889285
1590000000               0.10970008305496998      0.85720051765411
1620000000               0.18623081196282085      0.8422431406354257
1650000000               0.26095746116697177      0.8204923991720687
1680000000               0.3332820473157998       0.7921553847815076
1710000000               0.40262971096053524      0.7574910890434834
1740000000               0.4684530987266726       0.716807854218014
1770000000               0.5302364647498724       0.6704604758903158
1800000000               0.5874994677805624       0.6188469888131571
1830000000               0.6398006437572378       0.5624051681001233
1860000000               0.6867405374792676       0.5016087780327321
1890000000               0.7279644795623206       0.43696360143387675
1920000000               0.7631649986193918       0.36900328193168136
1950000000               0.7920838611651455       0.2982850114238262
1980000000               0.8145137349614274       0.22538509405829044
2010000000               0.8302994742241339       0.15089441724678967
2040000000               0.8393390281053051       0.07541385821443475
2070000000               0.8415839763833244       -4.50347786255824E-4
2100000000               0.8370396982765271       -0.07609125554263585
2130000000               0.8257651805286355       -0.1509058578550286
2.16E9                   0.8078724674679525       -0.22429972445844562
2.19E9                   0.7835257455204364       -0.29569163053486536
2.22E9                   0.752940034431246        -0.36451817548472776
2.25E9                   0.7163794267672032       -0.4302383794834781
2.28E9                   0.674154787778393        -0.4923381992373408
2.31E9                   0.6266208305145224       -0.5503348190715299
2.34E9                   0.5741725664041549       -0.603780472735076
2.37E9                   0.5172413211853508       -0.6522655245360097
2.4E9                    0.4562907183089909       -0.6954206963237084
2.43E9                   0.391813065324963        -0.7329186668526497
2.46E9                   0.3243262907378416       -0.7644755627416918
2.49E9                   0.2543711261544072       -0.7898528099948469
2.52E9                   0.18250798718924913      -0.8088594165558294
2.55E9                   0.10931316419289967      -0.8213543467981993
2.58E9                   0.03537429642633399      -0.8272485314026199
2.61E9                   -0.038714633703189       -0.8265062137788832
2.64E9                   -0.11235849860627063     -0.8191455581483406
2.67E9                   -0.1849662083220217      -0.8052385842055525
2.7E9                    -0.2559557719432844      -0.7849105307310165
2.73E9                   -0.3247591960965718      -0.7583387318373545
2.76E9                   -0.3908272056527016      -0.7257510582441246
2.79E9                   -0.45363377485516587     -0.6874239524034227
2.82E9                   -0.5126804513633167      -0.643680074126979
2.85E9                   -0.5675004482628891      -0.5948855701526251
2.88E9                   -0.6176624742968895      -0.5414469826650995
2.91E9                   -0.6627742695747632      -0.4838078160959575
2.94E9                   -0.7024858138739222      -0.4224447862749563
2.97E9                   -0.7364921755000788      -0.3578637813503124
3.0E9                    -0.7645359715836325      -0.2905955681837598
3.03E9                   -0.786409413880628       -0.22119128231510155
3.06E9                   -0.8019559184659578      -0.15021774303100216
3.09E9                   -0.8110712625654206      -0.07825263763871776
3.12E9                   -0.8137042768296974      -0.0058796213569600134
3.15E9                   -0.8098570669611578      0.06631661993651777
3.18E9                   -0.7995847640386741      0.1377552964149406
3.21E9                   -0.7829948083185586      0.20786438344820524
3.24E9                   -0.7602457763122145      0.2760853875958257
3.27E9                   -0.7315457654540487      0.3418779657179667
3.3E9                    -0.6971503545654792      0.40472435598637
3.33E9                   -0.6573601615697422      0.4641335819560509
3.36E9                   -0.6125180227839068      0.5196453931359724
3.39E9                   -0.5630058206491187      0.5708339076587088
3.42E9                   -0.5092409895337277      0.6173109242335812
3.45E9                   -0.4516727323600443      0.6587288722412652
3.48E9                   -0.3907779848200565      0.6947833704896224
3.51E9                   -0.32705716858932105     0.7252153678139203
3.54E9                   -0.2610297805888413      0.7498128425697574
3.57E9                   -0.19322987040396297     0.7684120443547227
3.6E9                    -0.12420146256369904     0.7808982695196631
3.63E9                   -0.05449398204396747     0.7872061724366508
3.66E9                   0.015342259871227882     0.78731962539435
3.69E9                   0.08476046658463138      0.7812711501258218
3.72E9                   0.15322159814598885      0.7691409522481761
3.75E9                   0.2201984161823976       0.7510555960064184
3.78E9                   0.2851793024269648       0.7271863613023761
3.81E9                   0.3476718310825495       0.697747328431756
3.84E9                   0.40720608726516405      0.6629932372702899
3.87E9                   0.46333773716380694      0.6232171647812819
3.9E9                    0.5156508687200078       0.5787480552322182
3.93E9                   0.5637606295763761       0.529948121392045
3.96E9                   0.6073156876114428       0.4772101157205351
3.99E9                   0.6460005274642691       0.420954453983116
4.02E9                   0.679537576719541        0.3616261663172217
4.05E9                   0.7076891346510931       0.29969165510236684
4.08E9                   0.7302590611248463       0.23563525395077117
4.11E9                   0.7470941780705243       0.16995560257006836
4.14E9                   0.7580853415660574       0.10316187169226705
4.17E9                   0.763168156097833        0.03576988596172611
4.2E9                    0.7623233196479895       -0.03170180195772039
4.23E9                   0.7555766042788339       -0.09873583567283863
4.26E9                   0.7429984883038504       -0.16481993607842382
4.29E9                   0.7247034613723635       -0.22945070852297145
4.32E9                   0.7008490229375998       -0.29213735598230944
4.35E9                   0.6716343896856224       -0.352405284475914
4.38E9                   0.6372989212117013       -0.40979958901171565
4.41E9                   0.5981202684210061       -0.4638884058636552
4.44E9                   0.5544122472030241       -0.5142661125156823
4.47E9                   0.5065224416408782       -0.5605563513693375
4.5E9                    0.4548295451593742       -0.602414849903388
4.53E9                   0.39974045403474         -0.6395320082620923
4.56E9                   0.34168713388312355      -0.671635226356607
4.59E9                   0.2811232856170022       -0.698490945745107
4.62E9                   0.21852084170801192      -0.7199063868341492
4.65E9                   0.1543663257915423       -0.7357309685378474
4.68E9                   0.08915710786224906      -0.7458574042887437
4.71E9                   0.023397583491985688     -0.7502224734999118
4.74E9                   -0.04240469976552479     -0.7488074694113278
4.77E9                   -0.10774295048859824     -0.7416383220049517
4.8E9                    -0.17211505878405636     -0.7287853893600187
4.83E9                   -0.23502751804537497     -0.7103629052166968
4.86E9                   -0.29599931369089205     -0.6865280681105853
4.89E9                   -0.35456573938760844     -0.6574797604862366
4.92E9                   -0.4102820926752953      -0.6234568950843918
4.95E9                   -0.4627271978152943      -0.5847363988648769
4.98E9                   -0.5115067057699093      -0.5416308588602168
5.01E9                   -0.5562561287137159      -0.49448586709079284
5.04E9                   -0.5966435790465224      -0.44367711013181543
5.07E9                   -0.6323721976307952      -0.3896072515982864
5.1E9                    -0.663182270381086       -0.33270265145419975
5.13E9                   -0.6888530424489785      -0.27340995517487493
5.16E9                   -0.7092042412645224      -0.21219257160952043
5.19E9                   -0.7240973124348467      -0.14952704577698037
5.22E9                   -0.7334363578177631      -0.08589932878547318
5.25E9                   -0.7371687503398983      -0.021800954809251982
5.28E9                   -0.7352853935716489      0.04227484706952448
5.31E9                   -0.7278206013767972      0.1058370580922215
5.34E9                   -0.7148515926127812      0.16840073178966464
5.37E9                   -0.6964976196883875      0.2294907542752566
5.4E9                    -0.6729187674936004      0.28864545960595434
5.43E9                   -0.6443144643642711      0.3454200781467357
5.46E9                   -0.6109217392435067      0.39939001395118445
5.49E9                   -0.5730132445123574      0.45015395590765933
5.52E9                   -0.5308950488319406      0.4973368257919158
5.55E9                   -0.48490419415185193     0.540592556784843
5.58E9                   -0.43540600817476616     0.5796066827217663
5.61E9                   -0.38279116828351456     0.6140987050284931
5.64E9                   -0.3274725242555711      0.6438241940868911
5.67E9                   -0.26988170363011516     0.6685765771813694
5.7E9                    -0.21046554282569954     0.6881885689569304
5.73E9                   -0.14968240445669564     0.702533214298107
5.76E9                   -0.08799845026604967     0.7115245365821514
5.79E9                   -0.025883934264065902    0.715117810050752
5.82E9                   0.03619043820108949      0.7133094939028388
5.85E9                   0.0977570646778748       0.7061368694186947
5.88E9                   0.15835491246498368      0.6936774098216165
5.91E9                   0.2175329037519468       0.6760478933084785
5.94E9                   0.2748532174062845       0.6534032536128983
5.97E9                   0.32989449137694216      0.6259351563396831
6.0E9                    0.3822548957330046       0.5938702936278606
