% Model:              three_layers reality at 0.1mm.mph
% Version:            COMSOL 5.6.0.280
% Date:               Mar 8 2022, 17:52
% Table:              表格 1 - 全局计算 1
% freq (Hz)              real(emw.S11) (1)        imag(emw.S11) (1)
300000000                0.4386794470763592       -0.8264752223072537
330000000                0.34876354540775234      -0.8656220509567363
360000000                0.25563242412016934      -0.8951940203553564
390000000                0.16026103871089356      -0.9149400528221696
420000000                0.0636502649508575       -0.9247054494358565
450000000                -0.03318429291871983     -0.9244358624790898
480000000                -0.12922368900517897     -0.9141795319139085
510000000                -0.22345705473597066     -0.8940879395424679
540000000                -0.3148929045772076      -0.8644149969791717
570000000                -0.4025701926429796      -0.8255148630088176
600000000                -0.4855689932569136      -0.7778384763213405
630000000                -0.5630206845156688      -0.7219288871171838
660000000                -0.6341175210993614      -0.6584154731014404
690000000                -0.6981214900282557      -0.5880071299712287
720000000                -0.7543723515645953      -0.5114845326004721
750000000                -0.8022947768245887      -0.4296915698819379
780000000                -0.8414045043765761      -0.3435260628487489
810000000                -0.8713134496846806      -0.25392988150879797
840000000                -0.8917337134961598      -0.16187858163677582
870000000                -0.9024804485908293      -0.0683706865489615
900000000                -0.903473557957852       0.02558325828232147
930000000                -0.8947382114027786      0.11897172828572121
960000000                -0.8764041817639954      0.21079323110857998
990000000                -0.8487040159717543      0.300067158860488
1020000000               -0.8119700699428386      0.3858443563858387
1050000000               -0.7666304495621111      0.46721728613991814
1080000000               -0.7132039126036385      0.5433296757997018
1110000000               -0.6522937982133664      0.6133855425113691
1140000000               -0.5845810612201944      0.6766574963010465
1170000000               -0.5108164982648452      0.7324942348312549
1200000000               -0.4318122608895458      0.7803271525870791
1230000000               -0.34843275787820094     0.8196759987590574
1260000000               -0.26158505467284404     0.8501535302491953
1290000000               -0.17220888175624954     0.8714691185762405
1320000000               -0.08126636672485539     0.8834312820393149
1350000000               0.010268393946102884     0.8859491271334428
1380000000               0.10141980777808844      0.8790326958001793
1410000000               0.19122118932426366      0.8627922272364832
1440000000               0.2787249817157667       0.8374363548893312
1470000000               0.3630126892201229       0.8032692704866968
1500000000               0.4432044178595913       0.7606868976242928
1530000000               0.5184679276223075       0.7101721272555438
1560000000               0.5880271063400775       0.6522891765393211
1590000000               0.6511697831640252       0.5876771406076142
1620000000               0.7072548076936229       0.5170428141563412
1650000000               0.7557183299177453       0.44115286590216113
1680000000               0.7960792252250791       0.36082545440881053
1710000000               0.8279436186378831       0.2769213778829032
1740000000               0.8510084722225835       0.19033485412734708
1770000000               0.8650642100609425       0.10198402870815204
1800000000               0.8699963653172507       0.012801311004025942
1830000000               0.8657862445631527       -0.07627636227116831
1860000000               0.8525106150303863       -0.16431723742266133
1890000000               0.8303404310069951       -0.25040433169589155
1920000000               0.7995386261345936       -0.3336448060966486
1950000000               0.7604570086154653       -0.41317903621992375
1980000000               0.7135323060434922       -0.48818930197040544
2010000000               0.6592814148649535       -0.5579080281363377
2040000000               0.5982959151833566       -0.6216255221405413
2070000000               0.5312359116516129       -0.6786971745419785
2100000000               0.4588232514199046       -0.7285501103092082
2130000000               0.38183414345536026      -0.7706893015391857
2.16E9                   0.30109115149598975      -0.8047031644189432
2.19E9                   0.21745445070772115      -0.830268641444879
2.22E9                   0.13181213772966754      -0.847155674602943
2.25E9                   0.045069320574674346     -0.8552307584313159
2.28E9                   -0.04186418303523834     -0.8544589119592125
2.31E9                   -0.12808726012307795     -0.8449030506152394
2.34E9                   -0.21272087255453515     -0.8267197371397303
2.37E9                   -0.2949192628610195      -0.8001511411001213
2.4E9                    -0.37387675853690167     -0.7655148115419064
2.43E9                   -0.44882953550662663     -0.7231945339022929
2.46E9                   -0.5190544806511959      -0.6736353630639647
2.49E9                   -0.5838690637495122      -0.6173433787397029
2.52E9                   -0.6426351776027031      -0.5548876797664829
2.55E9                   -0.694767103881787       -0.48690108888450134
2.58E9                   -0.7397415286476838      -0.41407736089082053
2.61E9                   -0.7771071614792255      -0.33716474167316274
2.64E9                   -0.8064924430989632      -0.25695698887249235
2.67E9                   -0.8276109214467585      -0.17428316025754814
2.7E9                    -0.8402645268172511      -0.0899971007104066
2.73E9                   -0.844345170826405       -0.004967111415470944
2.76E9                   -0.8398350422526614      0.07993401781950703
2.79E9                   -0.8268058521246149      0.16383857703286464
2.82E9                   -0.8054171757911306      0.24589311311993478
2.85E9                   -0.7759139727388424      0.32526721974573564
2.88E9                   -0.738623330670197       0.40116192575780485
2.91E9                   -0.6939504676345015      0.4728176493869025
2.94E9                   -0.6423740254755151      0.5395216719891953
2.97E9                   -0.5844406934078331      0.6006150773394663
3.0E9                    -0.5207592085370827      0.6554990997932091
3.03E9                   -0.4519937888184575      0.7036408256523843
3.06E9                   -0.37885706214442527     0.7445781961872915
3.09E9                   -0.30210256240504824     0.7779242671460169
3.12E9                   -0.22251686904982115     0.8033706876770224
3.15E9                   -0.14091147048431196     0.8206903708907334
3.18E9                   -0.058114433189840754    0.8297393381160785
3.21E9                   0.02503804224821309      0.8304577283763838
3.24E9                   0.10771009982944335      0.8228699727859582
3.27E9                   0.18907466720875077      0.807084139556348
3.3E9                    0.2683217849982336       0.7832904586187747
3.33E9                   0.3446667588745411       0.7517590356050472
3.36E9                   0.4173580669404793       0.7128367639972397
3.39E9                   0.4856849506413031       0.6669434433308448
3.42E9                   0.5489846093043325       0.614567112612418
3.45E9                   0.6066489065387632       0.5562586142294491
3.48E9                   0.6581304836943463       0.49262541693067796
3.51E9                   0.7029481648115106       0.42432474848751145
3.54E9                   0.740691533769385        0.35205611915899493
3.57E9                   0.7710245726065857       0.27655335298966777
3.6E9                    0.7936882734471337       0.19857627932214172
3.63E9                   0.8085021746480443       0.11890226393636759
3.66E9                   0.815364819629615        0.03831777119360996
3.69E9                   0.8142531861450323       -0.04238985702403251
3.72E9                   0.8052211770712511       -0.12244024015889728
3.75E9                   0.7883972982608715       -0.20106727951676073
3.78E9                   0.7639816767410683       -0.27752585907847077
3.81E9                   0.7322425961841774       -0.35109786735878945
3.84E9                   0.6935127424371328       -0.4210975371395244
3.87E9                   0.6481853471649682       -0.48687617196694544
3.9E9                    0.5967103763408617       -0.5478264053212294
3.93E9                   0.5395908255576425       -0.6033861958280937
3.96E9                   0.4773790692735581       -0.6530427705891353
3.99E9                   0.41067309912743544      -0.6963366727290428
4.02E9                   0.3401124167033242       -0.732865957421034
4.05E9                   0.2663733451695393       -0.7622904458234321
4.08E9                   0.19016359311208308      -0.7843358309719394
4.11E9                   0.11221601880111934      -0.7987973673391154
4.14E9                   0.03328166752192665      -0.8055428789666046
4.17E9                   -0.04587774568852687     -0.8045148803328189
4.2E9                    -0.12449768142171341     -0.7957316952810961
4.23E9                   -0.20181871892756123     -0.7792875542568453
4.26E9                   -0.2770944025522386      -0.7553517250303651
4.29E9                   -0.34959885538847235     -0.7241667731799573
4.32E9                   -0.4186340823687065      -0.6860460540904234
4.35E9                   -0.4835369270063571      -0.6413705170203386
4.38E9                   -0.5436856627092358      -0.5905848694442235
4.41E9                   -0.5985061930250368      -0.5341931220412787
4.44E9                   -0.6474778141225848      -0.47275352202058873
4.47E9                   -0.6901384693567103      -0.40687288763915
4.5E9                    -0.7260894089584112      -0.33720037661237223
4.53E9                   -0.7549991633593168      -0.26442074877070443
4.56E9                   -0.7766067472926936      -0.18924721236976527
4.59E9                   -0.7907240327419864      -0.1124139680552807
4.62E9                   -0.797237259353714       -0.034668580052142316
4.65E9                   -0.7961076869770454      0.04323569365470194
4.68E9                   -0.7873714297367077      0.12054749436694433
4.71E9                   -0.7711385353942609      0.19652479003181128
4.74E9                   -0.7475913792925083      0.27044208485477755
4.77E9                   -0.7169824258149244      0.3415973909072544
4.8E9                    -0.6796313782848697      0.4093189549136074
4.83E9                   -0.6359217051513868      0.4729717211546481
4.86E9                   -0.5862965129571921      0.5319634774764198
4.89E9                   -0.5312537456200047      0.5857505895284489
4.92E9                   -0.471340724926948       0.6338431958626941
4.95E9                   -0.4071480990625529      0.6758097264178387
4.98E9                   -0.3393033202097342      0.7112806244310848
5.01E9                   -0.2684638151713414      0.739951194451485
5.04E9                   -0.19531003379599632     0.761583559363177
5.07E9                   -0.12053855191430465     0.7760077758157712
5.1E9                    -0.04485536599034923     0.7831222157844829
5.13E9                   0.031030549095321193     0.7828933552291424
5.16E9                   0.10641342402904108      0.7753551044674628
5.19E9                   0.180596686948401        0.7606077649367159
5.22E9                   0.2528988482557276       0.7388166181793867
5.25E9                   0.3226593264350802       0.7102100782193421
5.28E9                   0.38924418325061083      0.6750773060179608
5.31E9                   0.45205165278993803      0.6337652150868662
5.34E9                   0.5105173050533163       0.5866748785856806
5.37E9                   0.5641187053576973       0.5342574401003225
5.4E9                    0.61237950547295         0.4770096876558464
5.43E9                   0.6548729944275785       0.4154694487161469
5.46E9                   0.6912252059474359       0.35021090871355565
5.49E9                   0.7211177012437351       0.28183987486540885
5.52E9                   0.7442901192123981       0.21098893264577612
5.55E9                   0.7605425263088883       0.1383123968864958
5.58E9                   0.7697375261645313       0.06448095175014355
5.61E9                   0.7718020226522349       -0.009824097825470775
5.64E9                   0.7667284834053973       -0.08391698312754639
5.67E9                   0.7545755348493594       -0.15711397977131583
5.7E9                    0.7354677442049979       -0.22874012741982944
5.73E9                   0.70959451184081         -0.2981359567718958
5.76E9                   0.6772080967894305       -0.36466399879900285
5.79E9                   0.6386208969621809       -0.42771489198371415
5.82E9                   0.5942021617328512       -0.4867129957163798
5.85E9                   0.5443743017250438       -0.541121522341793
5.88E9                   0.48960888866180863      -0.5904472673684618
5.91E9                   0.4304223485280533       -0.6342450200219175
5.94E9                   0.36737128958453646      -0.6721216843300052
5.97E9                   0.30104739519303064      -0.703740069310522
6.0E9                    0.2320718433417943       -0.7288222494132012
