% Model:              three_layers reality at 0.1mm.mph
% Version:            COMSOL 5.6.0.280
% Date:               Mar 7 2022, 16:14
% Table:              表格 1 - 全局计算 1
% freq (Hz)              real(emw.S11) (1)        imag(emw.S11) (1)
300000000                0.4918823567762834       -0.786246960246182
330000000                0.41176905559351235      -0.8280644343594776
360000000                0.3283723210763794       -0.8619121948519738
390000000                0.24244096554249134      -0.887543402763164
420000000                0.15474909046304505      -0.9047786551636204
450000000                0.06608835296541714      -0.913509830136362
480000000                -0.02273991564282305     -0.9137026251970526
510000000                -0.11093264021117442     -0.905397944488631
540000000                -0.19769289289843625     -0.888712245895722
570000000                -0.28223766588219484     -0.8638369326597468
600000000                -0.36380544973757234     -0.8310368585842357
630000000                -0.44166354726029927     -0.79064800739139
660000000                -0.5151150543607593      -0.7430744032445398
690000000                -0.5835054442043907      -0.6887843087589798
720000000                -0.6462286949454934      -0.6283057677032132
750000000                -0.7027329053718973      -0.5622215522048019
780000000                -0.7525253486637529      -0.4911635765589263
810000000                -0.7951769197742151      -0.4158068428286769
840000000                -0.8303259380352831      -0.3368629862798609
870000000                -0.857681273720003       -0.255073490388737
900000000                -0.8770247733460859      -0.1712026443296783
930000000                -0.88821296650684        -0.0860303158076672
960000000                -0.8911780437926384      -3.44613804496812E-4
990000000                -0.8859281029312778      0.08506548449587267
1020000000               -0.8725466676495279      0.16941746930053095
1050000000               -0.8511914909063201      0.25194252378470927
1080000000               -0.8220926612288493      0.331892569986376
1110000000               -0.7855500376493926      0.4085470674344392
1140000000               -0.7419300449879228      0.48121950099860006
1170000000               -0.6916618674982212      0.5492634977176846
1200000000               -0.635233083795397       0.6120785180761317
1230000000               -0.573184791584391       0.6691150708989376
1260000000               -0.5061062744664148      0.7198794076833511
1290000000               -0.4346292670734233      0.7639376574055717
1320000000               -0.35942187775597606     0.8009193691521755
1350000000               -0.2811822304619428      0.8305204361821641
1380000000               -0.2006318891021219      0.8525053815406697
1410000000               -0.11850912867451431     0.8667089918229843
1440000000               -0.035562117997234036    0.8730372921164489
1470000000               0.04745792170115255      0.8714678616713312
1500000000               0.12980351874518234      0.8620494960115185
1530000000               0.2107376515451197       0.8449012273070761
1560000000               0.28954028778715485      0.8202107206382042
1590000000               0.36551470497262956      0.7882320692660518
1620000000               0.4379935379811178       0.749283017220626
1650000000               0.5063445029849326       0.7037416423148969
1680000000               0.5699757508955239       0.6520425370670698
1710000000               0.6283408078119503       0.5946725290589913
1740000000               0.6809430646691255       0.5321659857286604
1770000000               0.7273397831581321       0.4650997517903672
1800000000               0.7671455904031443       0.39408777002921225
1830000000               0.800035440478077        0.31977543836924355
1860000000               0.825747026921722        0.24283375772525928
1890000000               0.844082636941291        0.16395332596699522
1920000000               0.8549104450894855       0.08383823347521974
1950000000               0.8581652520486664       0.003199914441141059
1980000000               0.8538486827019757       -0.07724899485643844
2010000000               0.8420288669642709       -0.15680074551099935
2040000000               0.8228396361472221       -0.23475847820690518
2070000000               0.7964792752236175       -0.3104421202795568
2100000000               0.7632088731890825       -0.3831941858867242
2130000000               0.7233503017043866       -0.4523855247488262
2.16E9                   0.6772838122103331       -0.5174211102607237
2.19E9                   0.6254451541421595       -0.5777459951464702
2.22E9                   0.5683219643086289       -0.6328515523387962
2.25E9                   0.5064489728354353       -0.6822819826469222
2.28E9                   0.4404014109276334       -0.7256407131387416
2.31E9                   0.37078612523735865      -0.7625957079246632
2.34E9                   0.29823061589967903      -0.7928821103503991
2.37E9                   0.22337157727587373      -0.8163006726962
2.4E9                    0.14684581918935838      -0.8327117982602836
2.43E9                   0.06928626653611546      -0.8420274661609524
2.46E9                   -0.008676666180704552    -0.8442050436712437
2.49E9                   -0.08641120850602652     -0.8392461002281991
2.52E9                   -0.16328203449609477     -0.8272002035625695
2.55E9                   -0.23865230139290353     -0.8081709185503352
2.58E9                   -0.31188977378724464     -0.7823207940437243
2.61E9                   -0.38237518690097405     -0.7498735494984351
2.64E9                   -0.4495109095118176      -0.711113330881131
2.67E9                   -0.5127287292617095      -0.6663817992548804
2.7E9                    -0.5714963657818756      -0.6160739424939153
2.73E9                   -0.6253227743655255      -0.5606332608280565
2.76E9                   -0.6737624607794022      -0.5005466901937238
2.79E9                   -0.71641902261666        -0.43633942351052996
2.82E9                   -0.7529480717191757      -0.36856968027332765
2.85E9                   -0.7830596300091721      -0.29782342976931764
2.88E9                   -0.8065200452577117      -0.22470906292364493
2.91E9                   -0.8231534447110548      -0.14985201292253636
2.94E9                   -0.8328427293848091      -0.07388933421374803
2.97E9                   -0.835530105205351       0.002535740545003327
3.0E9                    -0.8312171461255364      0.078779238051354
3.03E9                   -0.8199643863841719      0.15420184274674187
3.06E9                   -0.8018904430521933      0.22817421833786933
3.09E9                   -0.777170674980613       0.3000822125145406
3.12E9                   -0.7460353897499885      0.36933190458299126
3.15E9                   -0.708767615518325       0.43535445718560367
3.18E9                   -0.6657004592885694      0.49761073622058183
3.21E9                   -0.6172140762836317      0.5555956673957884
3.24E9                   -0.5637322763513478      0.608842302655816
3.27E9                   -0.5057187922935997      0.6569255740681068
3.3E9                    -0.44367323209633913     0.6994657153671818
3.33E9                   -0.3781267329913415      0.736131331252149
3.36E9                   -0.30963733169820484     0.7666420909220983
3.39E9                   -0.23878506386729006     0.7907710152847343
3.42E9                   -0.16616680867278932     0.8083463176570886
3.45E9                   -0.09239090321926682     0.8192527475173299
3.48E9                   -0.018071567243202403    0.8234323786927096
3.51E9                   0.05617679942445655      0.8208847811568886
3.54E9                   0.12974535783684296      0.8116665229316493
3.57E9                   0.2020364951784382       0.7958899682956537
3.6E9                    0.27246928166599055      0.773721370326097
3.63E9                   0.3404845813870953       0.7453782958715786
3.66E9                   0.4055496904671886       0.7111264619928476
3.69E9                   0.4671624015013624       0.6712760969296664
3.72E9                   0.5248544269799823       0.6261779612229982
3.75E9                   0.5781941505011353       0.5762191766445923
3.78E9                   0.6267887109145498       0.5218190164183523
3.81E9                   0.6702854657204445       0.4634248114397723
3.84E9                   0.7083729306758824       0.4015081178465103
3.87E9                   0.7407813500636178       0.3365612585365658
3.9E9                    0.7672831005422577       0.26909428460906915
3.93E9                   0.7876931461379283       0.19963230576744542
3.96E9                   0.8018697224126421       0.12871303447412208
3.99E9                   0.8097153330893762       0.0568843122087677
4.02E9                   0.8111780155203082       -0.015298631428434637
4.05E9                   0.8062527114844628       -0.0872763849442445
4.08E9                   0.7949825039565255       -0.15848912045118652
4.11E9                   0.7774594684091977       -0.22838088881008117
4.14E9                   0.7538249354145216       -0.2964043083309004
4.17E9                   0.7242690484130088       -0.3620254470170614
4.2E9                    0.6890295978972838       -0.4247286858972942
4.23E9                   0.6483901950343438       -0.48402138324615307
4.26E9                   0.6026778971464872       -0.5394382191965379
4.29E9                   0.5522604091967811       -0.5905451665707052
4.32E9                   0.4975429653084307       -0.6369430874550728
4.35E9                   0.4389649561690856       -0.6782709841621092
4.38E9                   0.3769963284054429       -0.7142089354869005
4.41E9                   0.3121337543694903       -0.7444807309330131
4.44E9                   0.24489656159623863      -0.7688561886630167
4.47E9                   0.17582241970736714      -0.7871531184715103
4.5E9                    0.10546280275751113      -0.7992388766856884
4.53E9                   0.03437826973216183      -0.805031458249364
4.56E9                   -0.036866371037485204    -0.8045000816638416
4.59E9                   -0.10770693082987251     -0.7976652426166043
4.62E9                   -0.17758465272416704     -0.7845982390189921
4.65E9                   -0.24595088219185188     -0.7654201995255706
4.68E9                   -0.31227153039530553     -0.7403006729083743
4.71E9                   -0.3760312954080858      -0.709455848935333
4.74E9                   -0.436737641120717       -0.6731464759272081
4.77E9                   -0.4939245595983424      -0.6316755150836938
4.8E9                    -0.5471561483389917      -0.5853855349089003
4.83E9                   -0.5960300147718728      -0.5346558153117305
4.86E9                   -0.6401804823616698      -0.47989911552403247
4.89E9                   -0.6792815304850344      -0.42155807087760755
4.92E9                   -0.7130493697698657      -0.36010121842135656
4.95E9                   -0.7412445467139805      -0.29601869973142614
4.98E9                   -0.7636734893546436      -0.2298177373437733
5.01E9                   -0.780189445771499       -0.16201801699076182
5.04E9                   -0.7906928216925421      -0.09314712248175684
5.07E9                   -0.7951309820389432      -0.023736157857992164
5.1E9                    -0.7934976306044641      0.045684348928635155
5.13E9                   -0.7858319070341752      0.1145882301793213
5.16E9                   -0.772217327625337       0.18245719161428767
5.19E9                   -0.7527806430708548      0.24878415140003884
5.22E9                   -0.7276906065925206      0.3130765160046613
5.25E9                   -0.6971565718108168      0.37485946412380516
5.28E9                   -0.6614268073889478      0.4336792293265348
5.31E9                   -0.6207864445776442      0.4891062880336281
5.34E9                   -0.5755550523563738      0.5407383146217674
5.37E9                   -0.5260839242315102      0.5882027830871159
5.4E9                    -0.4727532173044635      0.6311591652642721
5.43E9                   -0.4159690839979998      0.6693007639704196
5.46E9                   -0.35616088479239827     0.7023562869640662
5.49E9                   -0.29377849252394456     0.730091290687997
5.52E9                   -0.22928962538750763     0.7523095998022128
5.55E9                   -0.1631770982971629      0.7688547531397729
5.58E9                   -0.09593586907565631     0.7796114580094624
5.61E9                   -0.028069776128847937    0.7845069690937894
5.64E9                   0.039912087409645386     0.7835122578593955
5.67E9                   0.10749934893317264      0.7766428139128064
5.7E9                    0.1741845882152495       0.7639589312114192
5.73E9                   0.2394676647523639       0.7455653857815159
5.76E9                   0.30285994780197945      0.7216105005111064
5.79E9                   0.3638882821592704       0.6922846893295354
5.82E9                   0.4220986032542404       0.6578186369726089
5.85E9                   0.47705921687465946      0.6184812707354155
5.88E9                   0.5283638337765044       0.5745776189613543
5.91E9                   0.5756344656934921       0.5264465625997697
5.94E9                   0.6185242489358086       0.4744584155309455
5.97E9                   0.6567201943515066       0.41901224305767937
6.0E9                    0.6899458010317105       0.360532844920921
