% Model:              three_layers reality at 0.1mm.mph
% Version:            COMSOL 5.6.0.280
% Date:               Feb 21 2022, 20:26
% Table:              表格 1 - 全局计算 1
% freq (Hz)              real(emw.S11) (1)        imag(emw.S11) (1)
300000000                0.488356997865828        -0.8263598312239783
330000000                0.4010712442970933       -0.8695384095141444
360000000                0.31026264673478077      -0.9035770790897278
390000000                0.21685610362810906      -0.9282233681305597
420000000                0.12179517810349996      -0.9433120178068329
450000000                0.026033751736297007     -0.9487680892225335
480000000                -0.06947294446931772     -0.9446087420214644
510000000                -0.16377762646704835     -0.9309437250572629
540000000                -0.2559503458665902      -0.9079746335022423
570000000                -0.3450877845767557      -0.8759929956073229
600000000                -0.43032229635855723     -0.8353772582978052
630000000                -0.5108305610096532      -0.7865887462323681
660000000                -0.5858417342363221      -0.7301666743007216
690000000                -0.6546449917172298      -0.6667222988007079
720000000                -0.716596379704559       -0.5969322975078446
750000000                -0.7711248973989618      -0.5215314734373967
780000000                -0.817737748696084       -0.4413048812535621
810000000                -0.8560247134705611      -0.3570794782189871
840000000                -0.8856616004742558      -0.269715404046513
870000000                -0.9064127560453082      -0.18009699527785786
900000000                -0.918132614733422       -0.08912363984487437
930000000                -0.9207662894467119      0.00229942329102906
960000000                -0.9143492100430723      0.09327025658476046
990000000                -0.899005830059034       0.1828992289875669
1020000000               -0.8749474314341378      0.2703177779468598
1050000000               -0.8424690666988202      0.3546868380420602
1080000000               -0.8019456867881737      0.43520485206538706
1110000000               -0.7538275106625223      0.5111152867712353
1140000000               -0.6986346998110902      0.5817135834963088
1170000000               -0.6369514069190236      0.646353481446642
1200000000               -0.5694192728009533      0.7044526603512387
1230000000               -0.4967304499552048      0.7554976576101841
1260000000               -0.41962023390923164     0.799048024342842
1290000000               -0.33885938550190514     0.8347396937530407
1320000000               -0.2552462282952867      0.862287544208908
1350000000               -0.16959860517948774     0.8814871484682926
1380000000               -0.08274577743681029     0.8922157090560385
1410000000               0.004479652448571692     0.8944321882466575
1440000000               0.0912497153078208       0.8881766489480593
1470000000               0.1767488717596315       0.8735688303327699
1500000000               0.2601815590379287       0.8508059889398342
1530000000               0.34077942125838057      0.8201600423894043
1560000000               0.41780816133279797      0.7819740585139972
1590000000               0.4905739579426607       0.736658137930573
1620000000               0.5584293971958427       0.6846847424228822
1650000000               0.6207788744204056       0.626583525417266
1680000000               0.6770834280988091       0.5629357238845508
1710000000               0.7268649743667212       0.4943681735941732
1740000000               0.7697099172312143       0.42154701146230056
1770000000               0.805272116469999        0.34517112998733274
1800000000               0.8332752020594235       0.26596544937185723
1830000000               0.8535142310711632       0.18467407287382398
1860000000               0.8658566902220649       0.10205339014489519
1890000000               0.8702428547911165       0.018865191649919795
1920000000               0.8666855224961325       -0.06413014552868525
1950000000               0.8552691492087959       -0.14618034450021744
1980000000               0.8361484220249538       -0.22654773886260438
2010000000               0.8095463137563261       -0.30451556747841835
2040000000               0.7757516702207582       -0.3793940303621473
2070000000               0.735116384927202        -0.4505261053862367
2100000000               0.6880522093958593       -0.5172931578625947
2130000000               0.6350272208503498       -0.5791204168876479
2.16E9                   0.5765619065488109       -0.6354824352671913
2.19E9                   0.5132247058791789       -0.6859086699529913
2.22E9                   0.4456266685133443       -0.7299892625686684
2.25E9                   0.37441467740603457      -0.7673808751028575
2.28E9                   0.30026259403537203      -0.797811955887122
2.31E9                   0.2238600012725984       -0.821086116145775
2.34E9                   0.1458992543461058       -0.837081773612784
2.37E9                   0.06706318528623659      -0.8457466574952455
2.4E9                    -0.011983020670604461    -0.8470877967242214
2.43E9                   -0.09059318103770037     -0.8411605132643875
2.46E9                   -0.16813550619500559     -0.8280613432508876
2.49E9                   -0.24398640537123406     -0.8079278204024121
2.52E9                   -0.3175277311559575      -0.7809439111658709
2.55E9                   -0.38814978376062736     -0.7473470160133195
2.58E9                   -0.4552589885372396      -0.7074327010604464
2.61E9                   -0.5182875235883138      -0.6615555234610767
2.64E9                   -0.5767025311553807      -0.6101263377498759
2.67E9                   -0.6300137176292496      -0.5536073318911755
2.7E9                    -0.6777791264788082      -0.49250597342117547
2.73E9                   -0.7196093521808218      -0.4273686270866881
2.76E9                   -0.7551705724728477      -0.3587742140327753
2.79E9                   -0.784186711985341       -0.28732803705232873
2.82E9                   -0.8064409451163699      -0.213655780197151
2.85E9                   -0.8217766573421917      -0.13839765319294114
2.88E9                   -0.8300979247397371      -0.06220265130960881
2.91E9                   -0.8313695375071056      0.014277085385659354
2.94E9                   -0.8256165764108676      0.09039181356952375
2.97E9                   -0.8129235449049962      0.1654996159885514
3.0E9                    -0.7934330594562566      0.23897169550118577
3.03E9                   -0.7673441036865543      0.31019750412169506
3.06E9                   -0.7349098567299409      0.37858967341179695
3.09E9                   -0.6964351116087546      0.4435887113652772
3.12E9                   -0.6522733049930475      0.5046674314444782
3.15E9                   -0.6028231845358286      0.5613350823160074
3.18E9                   -0.5485251436230348      0.6131411509513169
3.21E9                   -0.48985725506699174     0.6596788169926837
3.24E9                   -0.42733103474636513     0.7005880413592649
3.27E9                   -0.3614869633819246      0.735558275994281
3.3E9                    -0.29288979024279355     0.7643307830806598
3.33E9                   -0.2221236380061095      0.7867005500628287
3.36E9                   -0.14978692494601695     0.8025177812186824
3.39E9                   -0.076487121177723       0.8116889378551488
3.42E9                   -0.0028353617100931316   0.8141772890668316
3.45E9                   0.07055904835055209      0.810002925993718
3.48E9                   0.14309418167911403      0.7992421879738714
3.51E9                   0.21418101036939705      0.7820264527825489
3.54E9                   0.283248796081363        0.7585402585323636
3.57E9                   0.34975022197302813      0.7290187532246495
3.6E9                    0.4131661299036365       0.6937445070780194
3.63E9                   0.473009732877323        0.6530437666521518
3.66E9                   0.5288301972759953       0.6072822693613574
3.69E9                   0.580215526890825        0.5568607645332867
3.72E9                   0.6267947233248577       0.5022103997469669
3.75E9                   0.6682392385960831       0.4437881316219387
3.78E9                   0.7042637746904795       0.3820723142476676
3.81E9                   0.7346265269143409       0.31755860655867796
3.84E9                   0.7591290164401698       0.25075631505056806
3.87E9                   0.7776157065680889       0.1821852374656571
3.9E9                    0.7899736274353327       0.11237298992260557
3.93E9                   0.7961322204216192       0.04185269511835541
3.96E9                   0.7960635416547572       -0.028839187775839204
3.99E9                   0.7897828426376265       -0.0991651629296156
4.02E9                   0.777349408039736        -0.16858938052362
4.05E9                   0.7588674197231214       -0.2365808670921975
4.08E9                   0.7344865663361908       -0.30261733747024294
4.11E9                   0.704402140219748        -0.3661894892324067
4.14E9                   0.6688544439308309       -0.4268055825202807
4.17E9                   0.6281274377488253       -0.48399606580926546
4.2E9                    0.5825466647493084       -0.537318022394665
4.23E9                   0.5324765663076996       -0.5863592688630082
4.26E9                   0.4783173355467691       -0.6307420129275971
4.29E9                   0.4205014498936674       -0.6701260501717736
4.32E9                   0.35948998776194724      -0.704211529534083
4.35E9                   0.2957687864115219       -0.7327413368656812
4.38E9                   0.22984445593727046      -0.7555031369944586
4.41E9                   0.1622402403298379       -0.7723310880222405
4.44E9                   0.0934917144448825       -0.7831072107593067
4.47E9                   0.024142320986528        -0.7877623729799006
4.5E9                    -0.045261223682484086    -0.7862768385024466
4.53E9                   -0.11417360019060503     -0.7786803358029787
4.56E9                   -0.18205555783284366     -0.7650516175084334
4.59E9                   -0.24837849993736505     -0.7455175070049949
4.62E9                   -0.3126288953190997      -0.7202514574947955
4.65E9                   -0.37431244146145404     -0.6894716768965318
4.68E9                   -0.4329579312278689      -0.6534388921666192
4.71E9                   -0.48812080963299165     -0.6124538314215601
4.74E9                   -0.5393864405493894      -0.5668544870781677
4.77E9                   -0.5863731225216225      -0.5170131906364571
4.8E9                    -0.628734888551178       -0.4633334907614664
4.83E9                   -0.6661640960853781      -0.40624679720222484
4.86E9                   -0.6983937708432175      -0.3462087473494935
4.89E9                   -0.7251996281847097      -0.2836952743145197
4.92E9                   -0.746401674104391       -0.21919839842899413
4.95E9                   -0.7618652925843507      -0.15322181448341265
4.98E9                   -0.7715017563830461      -0.08627639015778506
5.01E9                   -0.7752681473468752      -0.01887571614753622
5.04E9                   -0.773166730016143       0.048468151596543774
5.07E9                   -0.7652438767364758      0.11524864452665103
5.1E9                    -0.7515886803052417      0.18096826913496347
5.13E9                   -0.73233139772675        0.245141838959999
5.16E9                   -0.7076418369404043      0.30729942780815195
5.19E9                   -0.6777277306996222      0.36698916189225417
5.22E9                   -0.6428330590360454      0.42377996153486813
5.25E9                   -0.6032362184938527      0.477264284258589
5.28E9                   -0.5592479248997617      0.5270608327802354
5.31E9                   -0.5112087864633631      0.57281711539777
5.34E9                   -0.45948657282464134     0.6142117215907291
5.37E9                   -0.404473289242198       0.6509562151757033
5.4E9                    -0.3465822030521354      0.6827966305984985
5.43E9                   -0.28624494713378434     0.7095146443466098
5.46E9                   -0.22390875734120144     0.7309285461872095
5.49E9                   -0.1600338190357297      0.7468941377306112
5.52E9                   -0.09509063214557419     0.75730564463718
5.55E9                   -0.029557271936279862    0.7620966626452415
5.58E9                   0.03608357268984346      0.7612410871642048
5.61E9                   0.1013478652454829       0.7547539172198396
5.64E9                   0.1657538142390573       0.7426917875911108
5.67E9                   0.22882574107789805      0.725153076295595
5.7E9                    0.2900980984376451       0.7022774650903765
5.73E9                   0.34911946109532743      0.6742448994976691
5.76E9                   0.4054563021547297       0.6412739887221353
5.79E9                   0.458696416100141        0.6036199731870945
5.82E9                   0.508451943541564        0.5615724295788688
5.85E9                   0.5543620508772218       0.5154528586512346
5.88E9                   0.5960953754570589       0.46561222310135514
5.91E9                   0.633352340851333        0.41242841329936053
5.94E9                   0.6658673904716687       0.35630356018042747
5.97E9                   0.6934111160712373       0.29766110557914277
6.0E9                    0.7157922023095242       0.23694257164630084
