% Model:              three_layers reality at 0.1mm.mph
% Version:            COMSOL 5.6.0.280
% Date:               Mar 9 2022, 11:35
% Table:              表格 1 - 全局计算 1
% freq (Hz)              real(emw.S11) (1)        imag(emw.S11) (1)
300000000                0.5838345177259434       -0.768759961939691
330000000                0.5113530684679537       -0.8180689091219495
360000000                0.4348505018062369       -0.8606061300625991
390000000                0.3549072620910405       -0.896070601648026
420000000                0.2721640763300487       -0.9241823603016535
450000000                0.18728515835303503      -0.944719135934355
480000000                0.10095432370967182      -0.9575182434613048
510000000                0.013869501828899367     -0.9624784819878436
540000000                -0.07326307279442937     -0.9595615872999965
570000000                -0.1597347730375722      -0.9487930979897622
600000000                -0.24484055679969918     -0.9302626379099226
630000000                -0.3278849614539192      -0.904123614262732
660000000                -0.4081880645699363      -0.8705923320599427
690000000                -0.4850913597557551      -0.8299465285592014
720000000                -0.5579634913645515      -0.7825233355482735
750000000                -0.6262057936423719      -0.7287166817950117
780000000                -0.689257577887068       -0.6689741538920244
810000000                -0.7466011128191727      -0.6037933397058406
840000000                -0.7977662446758408      -0.5337176848446648
870000000                -0.8423346067489499      -0.45933189805042984
900000000                -0.8799433707964956      -0.3812569484641802
930000000                -0.9102884981547158      -0.30014470195694143
960000000                -0.9331274528671716      -0.21667224976736216
990000000                -0.9482813455662926      -0.13153598648039738
1020000000               -0.9556364831646672      -0.04544549862400428
1050000000               -0.9551453068737614      0.04088267297534603
1080000000               -0.9468267082577516      0.1267313316795646
1110000000               -0.9307657206664566      0.21138891727913955
1140000000               -0.9071125914412905      0.29415572739677837
1170000000               -0.8760812476558009      0.37435000193049567
1200000000               -0.8379471755802792      0.4513138087407967
1230000000               -0.7930447409916211      0.5244186714313036
1260000000               -0.7417639840944721      0.5930708831104704
1290000000               -0.6845469283815764      0.6567164561414399
1320000000               -0.6218834475711069      0.7148456630006635
1350000000               -0.5543067398297913      0.7669971281406929
1380000000               -0.48238846053717527     0.8127614390775041
1410000000               -0.4067335684320453      0.8517842495816513
1440000000               -0.32797494081550627     0.8837688556387928
1470000000               -0.2467678144008353      0.9084782309886434
1500000000               -0.16378410807786692     0.9257365155884799
1530000000               -0.0797066832390117      0.9354299563742571
1560000000               0.0047764052434164485    0.9375073058117981
1590000000               0.0889776150152164       0.9319796884687097
1620000000               0.172215531694906        0.9189199513010391
1650000000               0.2538203472054358       0.8984615169971136
1680000000               0.33313915987330917      0.8707967638774557
1710000000               0.4095410579184769       0.8361749584575391
1740000000               0.48242195139977134      0.7948997697744922
1770000000               0.5512091229555448       0.747326395990144
1800000000               0.615365469846648        0.693858335724105
1830000000               0.6743934149082439       0.6349438370464182
1860000000               0.7278384663876314       0.5710720580547345
1890000000               0.7752924109108328       0.5027689728111673
1920000000               0.8163961262144497       0.43059305648585555
1950000000               0.850842003488517        0.3551307833061276
1980000000               0.8783759716693702       0.2769919700957319
2010000000               0.8987991182045726       0.1968049980724478
2040000000               0.9119689031255057       0.11521194458252766
2070000000               0.9177999651279063       0.03286365563023669
2100000000               0.9162645199723407       -0.0495852100394689
2130000000               0.9073923533714116       -0.13148113583028712
2.16E9                   0.8912704119728428       -0.21217667217776956
2.19E9                   0.8680419975478341       -0.29103530282124485
2.22E9                   0.8379055710143302       -0.3674362250478218
2.25E9                   0.8011131742596818       -0.44077901731711555
2.28E9                   0.7579684788646404       -0.5104881686331405
2.31E9                   0.7088244716418256       -0.5760174457437132
2.34E9                   0.6540807865529662       -0.6368540758620218
2.37E9                   0.5941806911209907       -0.6925227239307612
2.4E9                    0.5296077315056614       -0.7425892437972162
2.43E9                   0.4608820346798524       -0.786664179048695
2.46E9                   0.3885562591977289       -0.8244059795275404
2.49E9                   0.3132111849979484       -0.8555238787438668
2.52E9                   0.23545094512193235      -0.8797803483396287
2.55E9                   0.1558979452288048       -0.8969930171598606
2.58E9                   0.07518759051829847      -0.907035944771819
2.61E9                   -0.006036980664372572    -0.9098402056193211
2.64E9                   -0.08712993595908802     -0.9053938758200367
2.67E9                   -0.16744744084112373     -0.893741654167544
2.7E9                    -0.2463520827646061      -0.8749843747763038
2.73E9                   -0.32321727365671865     -0.8492785230357083
2.76E9                   -0.39743187495700494     -0.8168356385079785
2.79E9                   -0.4684051209997373      -0.7779213466773163
2.82E9                   -0.5355717207025542      -0.7328537885521826
2.85E9                   -0.5983969193024173      -0.6820013516228879
2.88E9                   -0.6563813174583347      -0.625779736857
2.91E9                   -0.7090653172829661      -0.5646484627744072
2.94E9                   -0.7560331323171159      -0.49910691537521806
2.97E9                   -0.7969163386492577      -0.4296900320640288
3.0E9                    -0.831396958945899       -0.356963684927788
3.03E9                   -0.8592100724964846      -0.28151981382811786
3.06E9                   -0.8801459417011881      -0.20397135309024092
3.09E9                   -0.894051643402963       -0.12494699495544122
3.12E9                   -0.9008321938755025      -0.045085834619321266
3.15E9                   -0.9004511587225068      0.03496805507827715
3.18E9                   -0.8929307433994934      0.1145710698123551
3.21E9                   -0.8783513651844119      0.19308548949498042
3.24E9                   -0.856850713115219       0.2698848123935946
3.27E9                   -0.8286223082037291      0.34435895701433333
3.3E9                    -0.7939135817216597      0.41591928327202404
3.33E9                   -0.7530234945111973      0.4840033866333632
3.36E9                   -0.7062997249874776      0.5480796220863712
3.39E9                   -0.6541354577917317      0.6076513183413991
3.42E9                   -0.5969658086283667      0.6622606468129604
3.45E9                   -0.5352639241996258      0.7114921139920279
3.48E9                   -0.4695367987744324      0.754975650555645
3.51E9                   -0.40032085106324633     0.792389275454108
3.54E9                   -0.32817730658320365     0.8234613182702113
3.57E9                   -0.253687431805259       0.8479721882000425
3.6E9                    -0.17744766628292652     0.8657556835847375
3.63E9                   -0.10006469877753812     0.8766998408916339
3.66E9                   -0.022150531693617383    0.8807473273274115
3.69E9                   0.055682423733310143     0.8778953856856099
3.72E9                   0.1328261819641119       0.8681953440188972
3.75E9                   0.2086819113478418       0.851751705599207
3.78E9                   0.2826645224988038       0.8287208364402509
3.81E9                   0.35420708667900147      0.7993092686687838
3.84E9                   0.42276505469317877      0.7637716387049514
3.87E9                   0.48782024825697196      0.7224082800464958
3.9E9                    0.5488845951681119       0.6755624923504836
3.93E9                   0.6055035796588811       0.6236175118419275
3.96E9                   0.657259380198455        0.5669932129195965
3.99E9                   0.7037736700153236       0.5061425767471167
4.02E9                   0.7447100615446264       0.4415479682927595
4.05E9                   0.7797761847980098       0.3737172672614604
4.08E9                   0.8087254008586229       0.3031798979615004
4.11E9                   0.8313581618205945       0.23048279827689583
4.14E9                   0.8475230356224043       0.15618635808245357
4.17E9                   0.8571174149494145       0.08086034644669429
4.2E9                    0.8600879246411459       0.005079837358590512
4.23E9                   0.8564305333563251       -0.07057885933909112
4.26E9                   0.8461903679783781       -0.14554225326115994
4.29E9                   0.8294612260853363       -0.21924369989603815
4.32E9                   0.8063847840527605       -0.29112737769197466
4.35E9                   0.7771495034515834       -0.360652193055323
4.38E9                   0.7419892427395024       -0.4272955930518279
4.41E9                   0.7011815819522522       -0.4905572696609841
4.44E9                   0.6550458649761066       -0.549962742303436
4.47E9                   0.6039409593176068       -0.605066804238724
4.5E9                    0.5482627302643616       -0.6554568131044083
4.53E9                   0.4884412271155343       -0.7007557987657766
4.56E9                   0.4249375843268192       -0.740625354896741
4.59E9                   0.35824064907623115      -0.7747682768159239
4.62E9                   0.2888633561922914       -0.8029309084107507
4.65E9                   0.21733888049838762      -0.8249051648407015
4.68E9                   0.1442166032257168       -0.8405302046128
4.71E9                   0.07005793280626503      -0.8496937330530008
4.74E9                   -0.004567979861728056    -0.8523329277951224
4.77E9                   -0.07908859402995674     -0.8484349836256719
4.8E9                    -0.1529323673093977      -0.8380372781778912
4.83E9                   -0.22553315108555597     -0.8212271604326628
4.86E9                   -0.2963345678586512      -0.7981413621241112
4.89E9                   -0.36479434391054755     -0.7689650294888918
4.92E9                   -0.43038856774640344     -0.7339303714910783
4.95E9                   -0.49261583952782795     -0.6933149220732452
4.98E9                   -0.5510012723180687      -0.647439418160228
5.01E9                   -0.6051003029106766      -0.5966653015234419
5.04E9                   -0.6545022692781507      -0.5413918599349112
5.07E9                   -0.698833712965004       -0.4820530305712445
5.1E9                    -0.7377613678881885      -0.4191138960105166
5.13E9                   -0.7709948023929466      -0.35306690940619506
5.16E9                   -0.7982886882906337      -0.2844278905823813
5.19E9                   -0.8194446792657566      -0.21373183685861022
5.22E9                   -0.8343128891993662      -0.14152859163076512
5.25E9                   -0.8427929673532358      -0.06837840924674486
5.28E9                   -0.8448347694200937      0.005152550520890222
5.31E9                   -0.8404386216500394      0.0784967690277491
5.34E9                   -0.8296551714506859      0.15108992627041962
5.37E9                   -0.8125848157238574      0.22237543414532565
5.4E9                    -0.7893767005679394      0.2918089025699819
5.43E9                   -0.7602272933730396      0.3588624889366932
5.46E9                   -0.7253785391537704      0.42302907846639703
5.49E9                   -0.6851156244510728      0.48382624479720077
5.52E9                   -0.6397643824586192      0.5407999456025988
5.55E9                   -0.5896883806976538      0.5935279167086969
5.58E9                   -0.5352857374216293      0.6416227383761525
5.61E9                   -0.4769857141249773      0.684734558814935
5.64E9                   -0.4152451286118757      0.7225534710579721
5.67E9                   -0.35054462552167714     0.7548115480884489
5.7E9                    -0.28338483015201027     0.7812845446517737
5.73E9                   -0.21428240131013104     0.8017932697977002
5.76E9                   -0.14376599402006143     0.8162046239236016
5.79E9                   -0.07237214865424839     0.824432282174202
5.82E9                   -6.411373034252322E-4    0.8264370011284877
5.85E9                   0.07088718540967065      0.8222265326061351
5.88E9                   0.14167747025644975      0.811855145710868
5.91E9                   0.2112028464107871       0.79542277857137
5.94E9                   0.2789487391918778       0.7730738556492787
5.97E9                   0.34441650970802373      0.744995810659136
6.0E9                    0.4071269080125511       0.711417350145627
