% Model:              three_layers reality at 0.1mm.mph
% Version:            COMSOL 5.6.0.280
% Date:               Mar 2 2022, 21:50
% Table:              表格 1 - 全局计算 1
% freq (Hz)              real(emw.S11) (1)        imag(emw.S11) (1)
300000000                0.5962153806909166       -0.7861900526269733
330000000                0.5215384327878159       -0.8379831706307329
360000000                0.44240684236361666      -0.8827115530698662
390000000                0.3594852948761442       -0.9199919740625273
420000000                0.2734718061550055       -0.949503235693729
450000000                0.1850920096835143       -0.9709891586214954
480000000                0.09509315790090939      -0.9842610631061691
510000000                0.004237878602894618     -0.9891997081984981
540000000                -0.08670226751195892     -0.9857566597724695
570000000                -0.1769533768964008      -0.9739550618027182
600000000                -0.26574588574540153     -0.953889789935825
630000000                -0.3523212861980639      -0.9257269716198504
660000000                -0.4359388139381639      -0.8897028630623032
690000000                -0.5158820426936358      -0.8461220798631551
720000000                -0.591465319595817       -0.7953551851620111
750000000                -0.6620399742565483      -0.737835646811638
780000000                -0.7270002350564202      -0.6740561827047227
810000000                -0.7857887870534974      -0.6045645215639671
840000000                -0.8379019087846         -0.5299586140111656
870000000                -0.8828941281474993      -0.45088133698291655
900000000                -0.9203823426762199      -0.3680147413899553
930000000                -0.9500493548373957      -0.28207390000197957
960000000                -0.9716467796816318      -0.19380041855124586
990000000                -0.9849972896807423      -0.10395567811778605
1020000000               -0.9899961697029621      -0.013313881167644342
1050000000               -0.9866121638573206      0.07734502347233967
1080000000               -0.9748876050525084      0.16724245935818904
1110000000               -0.9549378274405911      0.2556083073629316
1140000000               -0.9269498712116031      0.3416878795150978
1170000000               -0.891180498312735       0.4247487067569504
1200000000               -0.8479535463680871      0.5040870686319087
1230000000               -0.7976566561759768      0.579034197276349
1260000000               -0.7407374156321138      0.6489620932338017
1290000000               -0.6776989693182155      0.7132888970061193
1320000000               -0.6090951486572989      0.7714837668896012
1350000000               -0.5355251819679119      0.8230712211816116
1380000000               -0.45762804713414207     0.8676349105995677
1410000000               -0.37607653187312534     0.9048207947117343
1440000000               -0.29157106773480523     0.934339704157578
1470000000               -0.20483340417479196     0.9559692782299596
1500000000               -0.11660018789455613     0.9695552750183372
1530000000               -0.02761651126128886     0.9750122582610148
1560000000               0.06137050934835031      0.9723236717589554
1590000000               0.14961806739355357      0.961541318047241
1620000000               0.2363938582489226       0.9427842633152109
1650000000               0.320982079664919        0.9162371950921824
1680000000               0.4026891953412804       0.8821482630000764
1710000000               0.48084942080435306      0.8408264359957537
1740000000               0.5548298957137966       0.7926384118319647
1770000000               0.6240355111070901       0.7380051162752661
1800000000               0.6879133647582876       0.6773978306954254
1830000000               0.7459568220317195       0.611333987283229
1860000000               0.7977091636564154       0.5403726712968893
1890000000               0.8427668055424757       0.4651098695518989
1920000000               0.8807820791609399       0.386173503868548
1950000000               0.9114655640766035       0.3042182874749302
1980000000               0.934587966943515        0.21992044156029422
2010000000               0.9499815437519349       0.13397230817615238
2040000000               0.9575410642499439       0.04707689487805203
2070000000               0.9572243194788165       -0.040057614532582234
2100000000               0.949052175131272        -0.12672334963078544
2130000000               0.9331081751377241       -0.21221821055175671
2.16E9                   0.9095377015051889       -0.29585126090882324
2.19E9                   0.8785466980440746       -0.37694802513300346
2.22E9                   0.8403999671644105       -0.4548556600875309
2.25E9                   0.7954190504698403       -0.5289479716282773
2.28E9                   0.7439797050960536       -0.5986302483579101
2.31E9                   0.6865089885534982       -0.6633438863908465
2.34E9                   0.6234819644696323       -0.7225707810771462
2.37E9                   0.5554180394878648       -0.775837463358402
2.4E9                    0.48287693689484734      -0.8227189584975769
2.43E9                   0.40645430487535955      -0.8628423408257234
2.46E9                   0.3267769492026604       -0.8958899451494475
2.49E9                   0.2444976779558731       -0.9216021698030685
2.52E9                   0.1602897639723782       -0.9397797682586178
2.55E9                   0.07484108593057677      -0.9502854915093679
2.58E9                   -0.011151893964486704    -0.9530449493309088
2.61E9                   -0.09699005653430692     -0.9480466512633289
2.64E9                   -0.18197718041487684     -0.9353413708775107
2.67E9                   -0.2654249972969896      -0.9150411538163766
2.7E9                    -0.3466578918252771      -0.887318301169249
2.73E9                   -0.42501759450396276     -0.8524044400477255
2.76E9                   -0.49986817655613075     -0.8105894874418764
2.79E9                   -0.5706014069177701      -0.7622201538594124
2.82E9                   -0.636642277525538       -0.7076977067805077
2.85E9                   -0.6974544023278005      -0.6474749104183781
2.88E9                   -0.752545045386925       -0.5820522232035238
2.91E9                   -0.8014696397896494      -0.5119734023798479
2.94E9                   -0.8438357458435862      -0.43782065792671765
2.97E9                   -0.879306441080097       -0.36020946300478646
3.0E9                    -0.9076031467051552      -0.2797830962526668
3.03E9                   -0.9285078925665096      -0.19720697267835244
3.06E9                   -0.9418650173607328      -0.11316281287794311
3.09E9                   -0.9475822978631353      -0.02834269993730634
3.12E9                   -0.945631501436224       0.05655692408797907
3.15E9                   -0.9360483594819491      0.14084126763163582
3.18E9                   -0.918931964709596       0.22382314863404398
3.21E9                   -0.8944436013067834      0.30482884622076084
3.24E9                   -0.8628050235820531      0.3832037890421429
3.27E9                   -0.8242962049905125      0.4583180262289721
3.3E9                    -0.7792525853245383      0.529571430023713
3.33E9                   -0.7280618491702736      0.5963985828707629
3.36E9                   -0.6711602733378573      0.6582733061950159
3.39E9                   -0.6090286849648333      0.7147127928562654
3.42E9                   -0.5421880752491599      0.7652813104614339
3.45E9                   -0.47119491649254874     0.8095934480215784
3.48E9                   -0.3966362320474337      0.8473168841021392
3.51E9                   -0.31912447016005396     0.8781746602502487
3.54E9                   -0.23929223334029148     0.9019469492820829
3.57E9                   -0.15778691483011614     0.9184723137984098
3.6E9                    -0.07526529300467609     0.9276484559947433
3.63E9                   0.007611867129655537     0.9294324653900639
3.66E9                   0.09018515853146365      0.9238405762278875
3.69E9                   0.1718017793064945       0.9109474508263198
3.72E9                   0.25182064281971306      0.8908850086981268
3.75E9                   0.32961731510911946      0.8638408236391492
3.78E9                   0.4045887478779953       0.8300561121135686
3.81E9                   0.4761577780604478       0.7898233365354669
3.84E9                   0.5437773667687029       0.7434834469253557
3.87E9                   0.6069345506409501       0.6914227848979488
3.9E9                    0.6651540782010689       0.6340696756695505
3.93E9                   0.7180017033892121       0.5718907374423784
3.96E9                   0.7650871093620133       0.5053869431017277
3.99E9                   0.8060664392671104       0.4350894760373131
4.02E9                   0.8406444180804127       0.36155542832653104
4.05E9                   0.868576060627063        0.2853633933386658
4.08E9                   0.8896679741190262       0.20710900349528003
4.11E9                   0.9037792756717086       0.12740045618387782
4.14E9                   0.9108221523066657       0.04685405792541208
4.17E9                   0.9107620902897179       -0.03391019754310793
4.2E9                    0.9036177925583875       -0.11427301255489027
4.23E9                   0.8894607912939314       -0.1936201287008519
4.26E9                   0.8684147529885706       -0.27134662426407463
4.29E9                   0.8406544697782401       -0.3468611517243715
4.32E9                   0.8064045338116191       -0.41959009389186086
4.35E9                   0.7659376975667034       -0.48898161497536874
4.38E9                   0.7195729277179912       -0.5545095854734089
4.41E9                   0.66767316032924         -0.6156773642308333
4.44E9                   0.6106427611747614       -0.6720214230999977
4.47E9                   0.5489246901353149       -0.7231147968085757
4.5E9                    0.48299736644077174      -0.7685703336660956
4.53E9                   0.41337123445465274      -0.808043714160922
4.56E9                   0.3405850375631412       -0.8412361977569186
4.59E9                   0.26520181853096647      -0.8678970556373442
4.62E9                   0.1878046760670026       -0.8878256493084401
4.65E9                   0.10899231681070241      -0.9008731214130828
4.68E9                   0.029374448348420047     -0.9069436742478315
4.71E9                   -0.05043293868665586     -0.9059954217881903
4.74E9                   -0.129812352791037       -0.8980408106667522
4.77E9                   -0.20814960592895845     -0.8831466128327004
4.8E9                    -0.28483860398149513     -0.8614334962793407
4.83E9                   -0.359286092410915       -0.8330751801208405
4.86E9                   -0.43091632869637575     -0.7982971776703268
4.89E9                   -0.4991756518430703      -0.7573751282728266
4.92E9                   -0.5635369149559829      -0.7106327178144096
4.95E9                   -0.6235037416067845      -0.6584391902068922
4.98E9                   -0.6786145621288325      -0.6012064577922988
5.01E9                   -0.7284463837497869      -0.5393858262809638
5.04E9                   -0.7726182487471216      -0.47346435837094775
5.07E9                   -0.8107943375374087      -0.4039609086169466
5.1E9                    -0.8426866785364514      -0.33142186985745115
5.13E9                   -0.8680574336617959      -0.2564166780520989
5.16E9                   -0.8867207373684738      -0.17953312685627332
5.19E9                   -0.8985440773336363      -0.10137254459807561
5.22E9                   -0.9034492146443954      -0.02254488349782463
5.25E9                   -0.901412647983219       0.05633623512983319
5.28E9                   -0.8924656280722222      0.13465848323437954
5.31E9                   -0.8766937256803415      0.2118157640128228
5.34E9                   -0.854235951797341       0.28721309289550834
5.37E9                   -0.8252834263429869      0.36027138280062365
5.4E9                    -0.7900775950984885      0.43043208653860526
5.43E9                   -0.7489080036385397      0.4971616426293743
5.46E9                   -0.7021096496550248      0.5599556688152842
5.49E9                   -0.6500599479609642      0.6183428511707865
5.52E9                   -0.5931753533813899      0.6718884846574218
5.55E9                   -0.5319076943512364      0.720197632064723
5.58E9                   -0.4667402739347897      0.7629178810973849
5.61E9                   -0.39818379451182395     0.799741693013835
5.64E9                   -0.32677215664903736     0.8304083491201641
5.67E9                   -0.2530581717702923      0.8547055106209247
5.7E9                    -0.17760921384331        0.872470409543184
5.73E9                   -0.1010028226582028      0.8835906813373273
5.76E9                   -0.023822266785992953    0.8880048354411362
5.79E9                   0.05334791762176057      0.8857023457282098
5.82E9                   0.1299263777976325       0.8767233378200004
5.85E9                   0.20533933148624917      0.861157860199316
5.88E9                   0.27902482739330364      0.8391447479364494
5.91E9                   0.3504368222895224       0.8108701116015686
5.94E9                   0.419049036446272        0.7765654991809245
5.97E9                   0.4843585707447581       0.7365057809013797
6.0E9                    0.5458892856032233       0.6910067980982548
