% Model:              three_layers reality at 0.1mm.mph
% Version:            COMSOL 5.6.0.280
% Date:               Feb 25 2022, 14:52
% Table:              表格 1 - 全局计算 1
% freq (Hz)              real(emw.S11) (1)        imag(emw.S11) (1)
300000000                0.5440539939925119       -0.7289226497301118
330000000                0.4754341267183293       -0.7738929586634086
360000000                0.40322876278721         -0.8125422593697019
390000000                0.3279979831689659       -0.8445766541978119
420000000                0.2503303304088577       -0.869753017560226
450000000                0.1708371648857158       -0.8878814488933751
480000000                0.09014714575272526      -0.8988272495814006
510000000                0.008900746557556084     -0.902512419751031
540000000                -0.072255231606451       -0.8989166680723919
570000000                -0.1526731519500725      -0.8880779265247123
600000000                -0.23171002675667873     -0.8700923635221707
630000000                -0.30873296589647414     -0.8451138907434864
660000000                -0.38312455596941963     -0.8133531621643164
690000000                -0.4542881286963235      -0.7750760680047281
720000000                -0.5216528759386035      -0.7306017303327844
750000000                -0.584678765060753       -0.6803000125346894
780000000                -0.6428612089027         -0.6245885596687363
810000000                -0.695735444525681       -0.5639293921521725
840000000                -0.7428805760921993      -0.49882508079774496
870000000                -0.7839232399612374      -0.4298145360444379
900000000                -0.8185408526133074      -0.35746844979007897
930000000                -0.8464644064062723      -0.2823844323283173
960000000                -0.867480782420607       -0.2051818913920397
990000000                -0.8814345548942442      -0.12649670375178407
1020000000               -0.8882292674917613      -0.04697573285518282
1050000000               -0.8878281677076626      0.03272875211171734
1080000000               -0.8802543920843855      0.11196469866422305
1110000000               -0.8655906014417435      0.1900858778141891
1140000000               -0.8439780718802216      0.26645741776354587
1170000000               -0.8156152537675099      0.3404612090242678
1200000000               -0.7807558171462072      0.4115011268415395
1230000000               -0.7397062078549654      0.47900801993470943
1260000000               -0.6928227440390704      0.542444418028336
1290000000               -0.6405082877162301      0.6013089145225177
1320000000               -0.5832085300181625      0.6551401857744825
1350000000               -0.5214079327531206      0.7035206127941871
1380000000               -0.45562537108028067     0.7460794774389884
1410000000               -0.38640952495296993     0.7824957098098686
1440000000               -0.314334067507488       0.8125001700209884
1470000000               -0.23999269985630534     0.8358774525083796
1500000000               -0.16399408123252146     0.8524672069000583
1530000000               -0.08695670270681895     0.8621649746161503
1560000000               -0.009503751629678626    0.8649225452704471
1590000000               0.06774198825684721      0.8607478416524634
1620000000               0.14416315812792532      0.8497043461587426
1650000000               0.21915272668534858      0.8319100852950729
1680000000               0.2921187366988615       0.807536192141276
1710000000               0.36248886161094873      0.7768050693578528
1740000000               0.429714741041386        0.739988177692309
1770000000               0.4932760677433667       0.6974034766957402
1800000000               0.5526844017006759       0.6494125457422432
1830000000               0.607486690055562        0.5964174145590951
1860000000               0.6572684749772851       0.5388571329366
1890000000               0.7016567741890015       0.47720410980417705
1920000000               0.7403226218319969       0.41196025178095425
1950000000               0.772983259733541        0.3436529313446237
1980000000               0.7994039716394522       0.27283081434871637
2010000000               0.8193995550908089       0.20005957621883663
2040000000               0.8328354275730612       0.12591753579347872
2070000000               0.8396283654905639       0.05099123516791292
2100000000               0.8397468762136132       -0.024129006793626465
2130000000               0.8332112050165581       -0.09885353979873852
2.16E9                   0.8200929803749979       -0.17259779997351213
2.19E9                   0.8005145024965498       -0.24478667407940147
2.22E9                   0.7746476815165657       -0.3148587849002141
2.25E9                   0.7427126330548153       -0.38227067371559476
2.28E9                   0.7049759401032809       -0.44650085658206057
2.31E9                   0.6617485908438205       -0.5070537330381305
2.34E9                   0.6133836019877912       -0.5634633272696971
2.37E9                   0.5602733357588406       -0.6152968434724716
2.4E9                    0.5028465152271693       -0.6621580175616559
2.43E9                   0.4415649372273054       -0.703690244745669
2.46E9                   0.3769198759428298       -0.7395794537891155
2.49E9                   0.3094281679286976       -0.7695566811013304
2.52E9                   0.23962798049840597      -0.7934002710644456
2.55E9                   0.1680743016814475       -0.8109376033920104
2.58E9                   0.09533425532179543      -0.822046247991533
2.61E9                   0.021982417245879838     -0.8266545040413167
2.64E9                   -0.05140366877164944     -0.8247413991564164
2.67E9                   -0.1242476600643938      -0.8163363510034083
2.7E9                    -0.19597832835352255     -0.8015187246838185
2.73E9                   -0.26603343005976526     -0.7804173985512814
2.76E9                   -0.3338637554174051      -0.7532102506390224
2.79E9                   -0.3989374385316567      -0.7201233444649949
2.82E9                   -0.4607444366442467      -0.6814296057289057
2.85E9                   -0.5188009923996101      -0.6374468944094677
2.88E9                   -0.572653899582695       -0.5885354933699838
2.91E9                   -0.6218844527890468      -0.5350950976958557
2.94E9                   -0.6661120213897744      -0.4775613997494878
2.97E9                   -0.7049972255360135      -0.4164023486688968
3.0E9                    -0.7382447066048103      -0.35211414317286766
3.03E9                   -0.7656054868174332      -0.2852170024562063
3.06E9                   -0.7868789105799907      -0.21625075346211978
3.09E9                   -0.8019141582586521      -0.14577027135606677
3.12E9                   -0.8106113229380473      -0.07434081150323106
3.15E9                   -0.8129220426723992      -0.0025332730779010298
3.18E9                   -0.8088496839561335      0.06908056343266086
3.21E9                   -0.7984490764230099      0.13993278160238423
3.24E9                   -0.7818258034054939      0.20946401370456777
3.27E9                   -0.7591350577567049      0.27712802156642985
3.3E9                    -0.7305800769628199      0.3423961318444806
3.33E9                   -0.6964101758827163      0.4047614859678339
3.36E9                   -0.6569183995082595      0.46374306719647357
3.39E9                   -0.612438821686136       0.5188894702807201
3.42E9                   -0.5633435190256322      0.5697823822285167
3.45E9                   -0.5100392520877182      0.6160397461333003
3.48E9                   -0.4529638883527084      0.6573185838293585
3.51E9                   -0.39258260355715385     0.693317456986685
3.54E9                   -0.3293838994747691      0.7237785505202763
3.57E9                   -0.263875477355395       0.7484893664433812
3.6E9                    -0.1965800066870781      0.767284020798578
3.63E9                   -0.12803082880128597     0.7800441407875689
3.66E9                   -0.058767634041011624    0.786699363591819
3.69E9                   0.010667850471487484     0.7872274424756922
3.72E9                   0.07973612747850077      0.7816539692050992
3.75E9                   0.14790411848315835      0.7700517245158731
3.78E9                   0.2146492450050298       0.7525396700801097
3.81E9                   0.2794633746605227       0.7292815964357743
3.84E9                   0.3418566056886855       0.7004844419383528
3.87E9                   0.40136086389928816      0.6663962986475641
3.9E9                    0.4575332858244938       0.6273041227004247
3.93E9                   0.5099593613190502       0.5835311697624561
3.96E9                   0.5582558094998781       0.5354341804737554
3.99E9                   0.6020731639213435       0.48340034642382296
4.02E9                   0.6410980479200064       0.4278440926723951
4.05E9                   0.6750551287292705       0.36920371682218917
4.08E9                   0.7037087485938027       0.3079379255119107
4.11E9                   0.7268642409195764       0.24452230521117754
4.14E9                   0.7443689462195557       0.17944575645895045
4.17E9                   0.756112944510014        0.11320691060422
4.2E9                    0.7620295171091812       0.04631053981430886
4.23E9                   0.7620953438368123       -0.020736032863011764
4.26E9                   0.7563304349322841       -0.08742651497798543
4.29E9                   0.7447977940706295       -0.15325920425408332
4.32E9                   0.7276028105310655       -0.21774050761375513
4.35E9                   0.7048923831967834       -0.2803883991621295
4.38E9                   0.676853783259777        -0.34073579851571245
4.41E9                   0.6437132635943059       -0.3983338549427107
4.44E9                   0.6057344202873107       -0.45275512584260924
4.47E9                   0.5632163074489943       -0.5035966379961696
4.5E9                    0.5164913031264895       -0.5504828158572501
4.53E9                   0.46592272397907897      -0.593068255014211
4.56E9                   0.4119021902514508       -0.6310403126386269
4.59E9                   0.35484674959223955      -0.6641214828165415
4.62E9                   0.2951957766514687       -0.6920715241191049
4.65E9                   0.2334076736680423       -0.7146893095846933
4.68E9                   0.1699564034737062       -0.7318143751438052
4.71E9                   0.10532789019632638      -0.7433281498510772
4.74E9                   0.04001632326500335      -0.7491548591747276
4.77E9                   -0.025479601861240653    -0.7492620991255953
4.8E9                    -0.09066047738194422     -0.7436610831430621
4.83E9                   -0.15502998666683931     -0.7324065646076825
4.86E9                   -0.21809869602319687     -0.7155964362933853
4.89E9                   -0.27938781322289014     -0.6933710054960747
4.92E9                   -0.33843288877490707     -0.6659119418375857
4.95E9                   -0.394787431751652       -0.633440895270004
4.98E9                   -0.4480264079582239      -0.596217784768393
5.01E9                   -0.4977495852495122      -0.554538763238329
5.04E9                   -0.5435846896902921      -0.508733870193489
5.07E9                   -0.5851903368431198      -0.4591643902387883
5.1E9                    -0.6222587049072124      -0.40621994163116676
5.13E9                   -0.654517920426002       -0.35031532504208013
5.16E9                   -0.6817341332858196      -0.29188716704536427
5.19E9                   -0.7037132648429038      -0.23139039540923856
5.22E9                   -0.7203024205172707      -0.16929458260050328
5.25E9                   -0.7313909639869488      -0.10608019025322607
5.28E9                   -0.736911252338152       -0.04223474233511716
5.31E9                   -0.7368390299588948      0.021751049248350963
5.34E9                   -0.7311934751755932      0.08538718304446163
5.37E9                   -0.7200368908171227      0.14818826275893116
5.4E9                    -0.7034740307721631      0.20967735385721406
5.43E9                   -0.6816510600895362      0.2693897609955944
5.46E9                   -0.6547541549958094      0.32687668174847756
5.49E9                   -0.6230077592002963      0.3817086923988604
5.52E9                   -0.5866725221028029      0.4334790253932644
5.55E9                   -0.5460429518750816      0.481806604783678
5.58E9                   -0.5014448213217205      0.5263388143969635
5.61E9                   -0.4532323664991351      0.5667539831282674
5.64E9                   -0.4017853163594429      0.6027635817521754
5.67E9                   -0.347505785776874       0.6341141339784662
5.7E9                    -0.29081505493305526     0.6605888484759985
5.73E9                   -0.23215024821277588     0.6820089759847741
5.76E9                   -0.17196092042933647     0.6982348866017907
5.79E9                   -0.11070556158871714     0.7091668511733543
5.82E9                   -0.0488480433427565      0.714745504453655
5.85E9                   0.013145954333889699     0.7149519716011272
5.88E9                   0.07481248747585525      0.7098076536391327
5.91E9                   0.13569281477576248      0.6993736855398606
5.94E9                   0.1953367480497944       0.6837500948166229
5.97E9                   0.2533058628467883       0.6630746941458509
6.0E9                    0.30917655881421136      0.6375217387763188
