% Model:              three_layers reality at 0.1mm.mph
% Version:            COMSOL 5.6.0.280
% Date:               Feb 28 2022, 11:14
% Table:              表格 1 - 全局计算 1
% freq (Hz)              real(emw.S11) (1)        imag(emw.S11) (1)
300000000                0.5984079276592941       -0.737152142783568
330000000                0.5316038468856462       -0.7858180966574816
360000000                0.46096497047694707      -0.8285209591895794
390000000                0.3870079493436116       -0.8649546652871012
420000000                0.3102766550920471       -0.8948586754072686
450000000                0.23133760593116898      -0.9180201210673853
480000000                0.15077530849814008      -0.9342756885598877
510000000                0.06918751389276814      -0.9435131028734628
540000000                -0.012819544522801785    -0.9456721701647712
570000000                -0.0946359163863919      -0.9407453836727584
600000000                -0.1756526897087529      -0.9287780995983564
630000000                -0.2552667103525707      -0.9098682883043179
660000000                -0.33288524159482713     -0.8841658667040696
690000000                -0.40793053120790934     -0.8518716197043897
720000000                -0.4798442554254398      -0.8132357207677029
750000000                -0.5480918097029267      -0.7685558631254219
780000000                -0.6121664115534173      -0.7181750178077865
810000000                -0.6715929870273097      -0.6624788351742054
840000000                -0.7259318091403861      -0.6018927112519412
870000000                -0.7747818610714456      -0.5368785412841209
900000000                -0.8177838965277122      -0.46793118702419734
930000000                -0.8546231735519045      -0.3955746855600151
960000000                -0.8850318401430997      -0.32035822961929095
990000000                -0.9087909520706895      -0.24285195239733476
1020000000               -0.9257321072113263      -0.16364255050306
1050000000               -0.9357386835048624      -0.08332878029562468
1080000000               -0.9387466708413476      -0.002516864333669501
1110000000               -0.9347450908023762      0.07818415515674508
1140000000               -0.9237760015727746      0.15816707781527634
1170000000               -0.9059340888642382      0.23683118464800998
1200000000               -0.8813658472646244      0.31358681737376
1230000000               -0.8502683597331928      0.387859861783732
1260000000               -0.812887686443549       0.4590960988259397
1290000000               -0.7695168775696981      0.5267653889420209
1320000000               -0.720493627110903       0.5903656576609067
1350000000               -0.6661975884722008      0.6494266507239068
1380000000               -0.6070473747530697      0.7035134303806013
1410000000               -0.543497269110978       0.7522295866267368
1440000000               -0.47603367285420745     0.7952201395447321
1470000000               -0.4051713208811874      0.8321741117111205
1500000000               -0.33144929551352664     0.8628267527034981
1530000000               -0.2554268708710669      0.8869614007321349
1560000000               -0.17767922167401107     0.9044109691629445
1590000000               -0.09879302999060169     0.9150590493392156
1620000000               -0.01936202477737048     0.9188406237813109
1650000000               0.060017511344226906     0.9157423872121101
1680000000               0.1387512337870918       0.9058026758239154
1710000000               0.21625119209686866      0.8891110081886677
1740000000               0.29194021726543157      0.8658072441232012
1770000000               0.36525620787410773      0.8360803706155352
1800000000               0.4356562842155889       0.800166926456001
1830000000               0.5026207800448059       0.7583490799572341
1860000000               0.5656570442409216       0.7109523761674313
1890000000               0.6243030254736088       0.6583431724517436
1920000000               0.6781306153272795       0.600925783047453
1950000000               0.726748726837986        0.5391393554515326
1980000000               0.769806088234526        0.47345450239143816
2010000000               0.8069937327405896       0.4043697157071841
2040000000               0.8380471689270372       0.33240758818662663
2070000000               0.8627482168681055       0.25811087247346176
2100000000               0.8809264992078227       0.1820384049892655
2130000000               0.8924605775969732       0.10476092514493605
2.16E9                   0.8972787279540388       0.02685681972531498
2.19E9                   0.895359350298254        -0.05109217694050874
2.22E9                   0.8867310114156894       -0.12850529650592207
2.25E9                   0.8714721211172102       -0.20480703300402348
2.28E9                   0.8497102452941608       -0.2794313921461859
2.31E9                   0.8216210613173601       -0.35182606365182506
2.34E9                   0.7874269637166734       -0.42145648732757846
2.37E9                   0.7473953299033913       -0.487809785281601
2.4E9                    0.7018364577213007       -0.5503985327033893
2.43E9                   0.651101187506789        -0.6087643415792193
2.46E9                   0.5955782229023043       -0.6624812309419698
2.49E9                   0.5356911649754361       -0.7111587578268896
2.52E9                   0.47189527757722305      -0.754444879824547
2.55E9                   0.40467400589373065      -0.7920285191826579
2.58E9                   0.33453528060588006      -0.823641797292863
2.61E9                   0.26200765063298553      -0.8490619160842435
2.64E9                   0.18763629395802114      -0.8681126783321356
2.67E9                   0.11197895071696706      -0.8806656575599509
2.7E9                    0.03560180249209779      -0.8866410382265342
2.73E9                   -0.04092469712935074     -0.8860081377001603
2.76E9                   -0.11703004103176246     -0.8787856008060632
2.79E9                   -0.19214792175441175     -0.8650412418167088
2.82E9                   -0.2657204850824716      -0.8448915094784445
2.85E9                   -0.33720253711937825     -0.8185005642132371
2.88E9                   -0.4060656562999329      -0.7860789725277209
2.91E9                   -0.4718021689115153      -0.7478820340504753
2.94E9                   -0.5339289530617526      -0.7042077615103746
2.97E9                   -0.5919910421153477      -0.6553945349486008
3.0E9                    -0.645565001509043       -0.6018184518843638
3.03E9                   -0.6942620551121892      -0.5438903954665179
3.06E9                   -0.737730938308123       -0.48205284421537087
3.09E9                   -0.7756604569870789      -0.41677644832160815
3.12E9                   -0.8077817334256716      -0.3485563992976115
3.15E9                   -0.8338701223394236      -0.2779086213236931
3.18E9                   -0.8537467825879438      -0.2053658149174168
3.21E9                   -0.8672798934928974      -0.13147338347607232
3.24E9                   -0.8743855068783898      -0.05678527572809577
3.27E9                   -0.8750280295642598      0.018140223497530264
3.3E9                    -0.8692203337837171      0.09274472051568335
3.33E9                   -0.8570234962408707      0.16647392514163992
3.36E9                   -0.8385461694960873      0.23878181482864128
3.39E9                   -0.8139435924011444      0.3091347183941093
3.42E9                   -0.7834162491911617      0.37701528773005216
3.45E9                   -0.7472081896868588      0.4419263270016635
3.48E9                   -0.7056050256404061      0.5033944504693103
3.51E9                   -0.6589316209398013      0.5609735412617688
3.54E9                   -0.6075494955175964      0.6142479857906682
3.57E9                   -0.5518539651530143      0.6628356601268042
3.6E9                    -0.49227104114604003     0.706390647149683
3.63E9                   -0.42925411558390875     0.7446056656146162
3.66E9                   -0.3632804592404381      0.7772141948956195
3.69E9                   -0.2948475603233633      0.8039922817265558
3.72E9                   -0.2244693330942706      0.8247600179749504
3.75E9                   -0.15267222577974984     0.8393826811763283
3.78E9                   -0.079991257567149       0.847771532066901
3.81E9                   -0.006966014650970288    0.8498842658297754
3.84E9                   0.06586336500244219      0.8457251162286964
3.87E9                   0.13796018818434597      0.8353446140887293
3.9E9                    0.20879515482513966      0.8188390040760146
3.93E9                   0.27785022877441073      0.7963493262249888
3.96E9                   0.34462240221192425      0.7680601713940752
3.99E9                   0.40862732570981725      0.7341981226760989
4.02E9                   0.4694027773041704       0.6950298977149559
4.05E9                   0.5265119462219051       0.6508602094626825
4.08E9                   0.5795465090552184       0.6020293652565691
4.11E9                   0.6281294794776543       0.5489106253365814
4.14E9                   0.6719178150194378       0.49190734269272884
4.17E9                   0.7106047668048245       0.43144990603220584
4.2E9                    0.7439219596516413       0.36799250747281953
4.23E9                   0.7716411907206038       0.30200975694366
4.26E9                   0.7935759359723001       0.23399316575341148
4.29E9                   0.8095825546656634       0.16444752349171196
4.32E9                   0.8195611842794212       0.09388719340190915
4.35E9                   0.8234563206031269       0.022832352289085436
4.38E9                   0.8212570802944626       -0.04819479859411083
4.41E9                   0.8129971455267694       -0.11867382604164334
4.44E9                   0.7987543919988216       -0.18808983536107024
4.47E9                   0.7786502029678041       -0.2559371938571115
4.5E9                    0.7528484732990756       -0.3217231822921731
4.53E9                   0.7215543091309293       -0.3849715490895251
4.56E9                   0.685012430895366        -0.44522594152261546
4.59E9                   0.6435052899475487       -0.5020531883963023
4.62E9                   0.5973509118081805       -0.5550464091779223
4.65E9                   0.5469004819613874       -0.6038279255363822
4.68E9                   0.492535692405815        -0.6480519533841047
4.71E9                   0.4346658697891364       -0.6874070550728918
4.74E9                   0.37372490728170327      -0.7216183343491613
4.77E9                   0.3101680236389024       -0.7504493589347373
4.8E9                    0.24446837366899068      -0.773703797935474
4.83E9                   0.17711353442160593      -0.791226763480401
4.86E9                   0.10860189209977858      -0.8029058475088597
4.89E9                   0.039438954887176615     -0.8086718463086076
4.92E9                   -0.029866382098385283    -0.8084991668784197
4.95E9                   -0.09880559270039697     -0.8024059111018707
4.98E9                   -0.1668742687323979      -0.7904536359572075
5.01E9                   -0.23357583348111266     -0.772746790506326
5.04E9                   -0.29842519115531163     -0.7494318332276854
5.07E9                   -0.3609522836882437      -0.7206960361521325
5.1E9                    -0.4207055269991174      -0.6867659851705453
5.13E9                   -0.4772550997488841      -0.6479057888279065
5.16E9                   -0.5301960592680096      -0.6044150105944152
5.19E9                   -0.5791512611337623      -0.5566263421082192
5.22E9                   -0.6237740613049146      -0.5049030366998479
5.25E9                   -0.6637507819300974      -0.4496361239030751
5.28E9                   -0.6988029241433392      -0.3912414262347632
5.31E9                   -0.7286891124545852      -0.3301564003951904
5.34E9                   -0.7532067566564572      -0.26683682582157026
5.37E9                   -0.7721934183220992      -0.20175336494954754
5.4E9                    -0.7855278705533457      -0.13538802158027627
5.43E9                   -0.7931308421643577      -0.06823052548766145
5.46E9                   -0.7949654406054238      -7.746728281403406E-4
5.49E9                   -0.7910372514148083      0.06648534723160855
5.52E9                   -0.7813941156619255      0.1330586095514059
5.55E9                   -0.7661255902489852      0.19846106396126542
5.58E9                   -0.7453620991929016      0.2622190720149011
5.61E9                   -0.7192737867052782      0.3238728431384116
5.64E9                   -0.6880690850419227      0.38297974602943413
5.67E9                   -0.6519930114100939      0.4391174735002766
5.7E9                    -0.6113252086008537      0.49188704116452264
5.73E9                   -0.5663777441299745      0.5409156011419544
5.76E9                   -0.5174926828046565      0.5858590523581511
5.79E9                   -0.46503944922563384     0.6264044281687686
5.82E9                   -0.4094119995800908      0.6622720421068427
5.85E9                   -0.35102582584688186     0.6932173740427988
5.88E9                   -0.2903148189140185      0.7190326824239017
5.91E9                   -0.22772801854235292     0.7395483330248322
5.94E9                   -0.16372627798033612     0.7546338390399556
5.97E9                   -0.09877886928187714     0.7641986108304508
6.0E9                    -0.03336005344556057     0.768192415623679
