% Model:              three_layers reality at 0.1mm.mph
% Version:            COMSOL 5.6.0.280
% Date:               Feb 25 2022, 15:35
% Table:              表格 1 - 全局计算 1
% freq (Hz)              real(emw.S11) (1)        imag(emw.S11) (1)
300000000                0.5987579130903828       -0.7338692561496505
330000000                0.5324346818991231       -0.7824761315113338
360000000                0.4622825252007994       -0.8251788959399105
390000000                0.38881176284268765      -0.861672125736085
420000000                0.31256300038168394      -0.8916937785926985
450000000                0.23409683784185767      -0.9150307518591441
480000000                0.1539917536051771       -0.9315189508804157
510000000                0.07283943804793083      -0.9410447273935333
540000000                -0.00875988748761447     -0.9435458951384232
570000000                -0.0902021565050582      -0.9390123248132799
600000000                -0.17088413400983316     -0.9274861220716396
630000000                -0.2502080597407826      -0.9090613924041666
660000000                -0.3275862343120709      -0.8838835975635683
690000000                -0.40244551738051304     -0.852148510117787
720000000                -0.47423170707360357     -0.8141007754289538
750000000                -0.5424137705673288      -0.7700320922555561
780000000                -0.6064878939226607      -0.720279026390404
810000000                -0.6659813210517158      -0.6652204741906546
840000000                -0.7204559519229177      -0.6052747959773733
870000000                -0.7695116725019915      -0.5408966414744855
900000000                -0.8127893904820956      -0.47257349175963265
930000000                -0.8499737516327569      -0.4008219464088444
960000000                -0.8807955168595246      -0.3261837833440251
990000000                -0.9050335797012098      -0.2492218244994091
1020000000               -0.9225166089774407      -0.17051563956558444
1050000000               -0.9331243035699983      -0.09065712209374449
1080000000               -0.9367882494495767      -0.010245974047054018
1110000000               -0.9334923727099377      0.07011486472299026
1140000000               -0.9232729856921559      0.14982380660234568
1170000000               -0.9062184265284506      0.2282851874080113
1200000000               -0.8824682960337633      0.3049137834406106
1230000000               -0.8522122993235762      0.37913923739257743
1260000000               -0.8156887023870729      0.45041035927612355
1290000000               -0.7731824178000344      0.5181992670216704
1320000000               -0.7250227358020638      0.5820053359736842
1350000000               -0.6715807208724112      0.6413589255792655
1380000000               -0.6132662954214854      0.6958248559289788
1410000000               -0.5505250358574119      0.7450056071535428
1440000000               -0.48383470716231164     0.788544218854939
1470000000               -0.41370156504748423     0.8261268681683703
1500000000               -0.34065645582761617     0.8574851085148268
1530000000               -0.2652507453558501      0.8823977539809866
1560000000               -0.18805210981520482     0.9006923969715457
1590000000               -0.10964022146006602     0.9122465501111634
1620000000               -0.030602363051764492    0.9169884062271427
1650000000               0.04847099513429747      0.9148972133863009
1680000000               0.12699062198448274      0.9060032649230657
1710000000               0.2043729228292417       0.8903875073073352
1740000000               0.28004427426701284      0.8681807715805985
1770000000               0.3534452651851343       0.8395626367215844
1800000000               0.4240348127111613       0.8047599360932411
1830000000               0.491294124225427        0.7640449203461857
1860000000               0.554730476965818        0.7177330927379546
1890000000               0.6138807892517182       0.6661807347215567
1920000000               0.6683149585208494       0.609782141864679
1950000000               0.7176389436311464       0.5489665917992587
1980000000               0.7614975706102932       0.4841950677805853
2010000000               0.7995770435283863       0.41595676243649216
2040000000               0.8316071437807587       0.34476538832011505
2070000000               0.8573631039970095       0.2711553220106556
2100000000               0.8766671444681542       0.19567761038238296
2130000000               0.8893896627862135       0.11889586778632129
2.16E9                   0.8954500695960519       0.04138209348533975
2.19E9                   0.8948172657471375       -0.03628756055013526
2.22E9                   0.8875097586564533       -0.11353704168767523
2.25E9                   0.8735954180618425       -0.18979463834837926
2.28E9                   0.8531908737554066       -0.264497181840694
2.31E9                   0.8264605602637357       -0.33709417876645975
2.34E9                   0.7936154155891          -0.40705184562876334
2.37E9                   0.7549112432423662       -0.4738570176945889
2.4E9                    0.7106467485105465       -0.5370209053327548
2.43E9                   0.6611612611124251       -0.5960826720866955
2.46E9                   0.6068321576313913       -0.6506128086931157
2.49E9                   0.5480719980606218       -0.7002162770224621
2.52E9                   0.48532539284042664      -0.7445353961891557
2.55E9                   0.41906562210455206      -0.7832524403699038
2.58E9                   0.34979103689206464      -0.8160919183426272
2.61E9                   0.27802128333549075      -0.8428225102583866
2.64E9                   0.20429339776337552      -0.8632586517084821
2.67E9                   0.12915781586133868      -0.8772617734207023
2.7E9                    0.053174322327435776     -0.8847412151405989
2.73E9                   -0.023092053102874745    -0.8856548258940145
2.76E9                   -0.09907519208650584     -0.8800092431283719
2.79E9                   -0.17421208488912843     -0.8678598273782248
2.82E9                   -0.24794703632165885     -0.8493102278808403
2.85E9                   -0.3197358356511757      -0.8245115666697056
2.88E9                   -0.3890498428104332      -0.7936612440691924
2.91E9                   -0.4553799497760178      -0.7570013791045386
2.94E9                   -0.5182403814226239      -0.7148169038563034
2.97E9                   -0.577172306823239       -0.6674333320296912
3.0E9                    -0.6317472347998289      -0.6152142224296636
3.03E9                   -0.6815701694819855      -0.5585583586936733
3.06E9                   -0.7262825030841491      -0.49789666785606945
3.09E9                   -0.7655646249881355      -0.43368890154456596
3.12E9                   -0.7991382273670781      -0.36642010609501235
3.15E9                   -0.8267682905921684      -0.29659690856990245
3.18E9                   -0.8482647332389516      -0.22474364840062977
3.21E9                   -0.8634837148417454      -0.15139838477967374
3.24E9                   -0.8723285820463782      -0.07710881145003362
3.27E9                   -0.8747504518843572      -0.002428110976478742
3.3E9                    -0.8707484288134236      0.07208921860809826
3.33E9                   -0.8603694552963458      0.14589153228558535
3.36E9                   -0.8437077986110673      0.2184341690046322
3.39E9                   -0.8209041795709879      0.28918351298846035
3.42E9                   -0.7921445517300479      0.35762095415895195
3.45E9                   -0.7576585424400695      0.42324671726976865
3.48E9                   -0.7177175697246133      0.485583530894691
3.51E9                   -0.6726326516417526      0.5441801084905503
3.54E9                   -0.6227519269124707      0.5986144160667928
3.57E9                   -0.5684579080433059      0.6484967024138291
3.6E9                    -0.5101644898777734      0.6934722704260827
3.63E9                   -0.44831373842836614     0.7332239700916763
3.66E9                   -0.38337248614770536     0.7674743963856723
3.69E9                   -0.31582876104058644     0.7959877777493034
3.72E9                   -0.2461880779662356      0.818571543472036
3.75E9                   -0.1749696208072379      0.8350775610021959
3.78E9                   -0.10270234485908727     0.8454030365671623
3.81E9                   -0.02992102877443923     0.8494910750717413
3.84E9                   0.042837694538700614     0.847330897566412
3.87E9                   0.1150392986603091       0.8389577169417042
3.9E9                    0.18615528675364956      0.8244522748776728
3.93E9                   0.2556670479824405       0.803940045601585
3.96E9                   0.32306961863669664      0.7775901146248101
3.99E9                   0.38787532020638094      0.7456137433997997
4.02E9                   0.44961724775091433      0.7082626336878872
4.05E9                   0.5078525839167526       0.6658269080280932
4.08E9                   0.5621657161641045       0.6186328249688503
4.11E9                   0.6121711375564672       0.5670402492264295
4.14E9                   0.6575161139181621       0.5114398978672459
4.17E9                   0.6978831026616888       0.45225038358057656
4.2E9                    0.7329919098115731       0.3899150764089477
4.23E9                   0.7626015730985416       0.32489880530097426
4.26E9                   0.7865119597742958       0.2576844216807929
4.29E9                   0.8045650689696618       0.18876924864160338
4.32E9                   0.8166460304414518       0.11866144037620906
4.35E9                   0.822683793813917        0.047876277449871586
4.38E9                   0.8226515049344286       -0.023067576166350932
4.41E9                   0.8165665682533473       -0.0936518289399938
4.44E9                   0.8044903958027039       -0.163362305400681
4.47E9                   0.7865278447409833       -0.2316926530076191
4.5E9                    0.7628263467072142       -0.2981479874318922
4.53E9                   0.7335747337678602       -0.3622484513720064
4.56E9                   0.6990017677221037       -0.4235326615020991
4.59E9                   0.6593743820168296       -0.48156101808386603
4.62E9                   0.6149956482286947       -0.5359188522109946
4.65E9                   0.5662024817425539       -0.5862193867804274
4.68E9                   0.5133631040430021       -0.6321064885214049
4.71E9                   0.45687428109502765      -0.673257190759112
4.74E9                   0.3971583591916842       -0.7093839686958439
4.77E9                   0.33466012078469487      -0.7402367515266287
4.8E9                    0.26984348372215106      -0.7656046578906154
4.83E9                   0.20318806760400676      -0.7853174433089741
4.86E9                   0.1351856515054207       -0.7992466498256248
4.89E9                   0.0663365478501472       -0.807306449650469
4.92E9                   -0.002854082073478992    -0.809454176141358
4.95E9                   -0.07187994436261978     -0.8056905372337658
4.98E9                   -0.14023733333357083     -0.7960595086352013
5.01E9                   -0.20742882867639878     -0.7806479065308325
5.04E9                   -0.27296694084485174     -0.759584642278419
5.07E9                   -0.336377676221987       -0.7330396644065402
5.1E9                    -0.3972039943215686      -0.7012225960909053
5.13E9                   -0.45500913010993194     -0.6643810791245429
5.16E9                   -0.5093797557756303      -0.6227988381842531
5.19E9                   -0.5599289581886084      -0.5767934815758058
5.22E9                   -0.6062990103582284      -0.5267140566696196
5.25E9                   -0.6481639173115078      -0.4729383797016694
5.28E9                   -0.6852317190401392      -0.4158701603541694
5.31E9                   -0.7172465343571809      -0.3559359425215497
5.34E9                   -0.7439903309568254      -0.29358188347797837
5.37E9                   -0.7652844080457295      -0.22927039506999708
5.4E9                    -0.7809905794716209      -0.16347667261027798
5.43E9                   -0.7910120477105911      -0.09668513869633465
5.46E9                   -0.7952939619202987      -0.02938583087384727
5.49E9                   -0.7938236566739332      0.037929237223091966
5.52E9                   -0.7866305714290931      0.10476971142775636
5.55E9                   -0.7737858541758498      0.17065049997752554
5.58E9                   -0.7554016558601495      0.23509531558847607
5.61E9                   -0.7316301249563222      0.2976401300517764
5.64E9                   -0.7026621138749438      0.35783651655255655
5.67E9                   -0.668725610354946       0.41525485743942864
5.7E9                    -0.6300839078221028      0.4694873967698352
5.73E9                   -0.5870335288244019      0.5201511184949474
5.76E9                   -0.5399019160842607      0.5668904312549846
5.79E9                   -0.4890449069879548      0.6093796404336761
5.82E9                   -0.4348440099597454      0.6473251880841215
5.85E9                   -0.3777035046741814      0.680467642566573
5.88E9                   -0.31804739128459225     0.7085834227587225
5.91E9                   -0.25631621569603297     0.7314862459349789
5.94E9                   -0.1929637978706854      0.7490282927622698
5.97E9                   -0.1284538892446097      0.7611010861288353
6.0E9                    -0.06325678333717875     0.7676360829347512
