% Model:              three_layers reality at 0.1mm.mph
% Version:            COMSOL 5.6.0.280
% Date:               Mar 3 2022, 09:40
% Table:              表格 1 - 全局计算 1
% freq (Hz)              real(emw.S11) (1)        imag(emw.S11) (1)
300000000                0.5984104256088593       -0.737151048386671
330000000                0.5316059305476083       -0.7858177332178887
360000000                0.46096672887858664      -0.8285210864881688
390000000                0.38700982136784057      -0.8649549148932959
420000000                0.31027859319224904      -0.8948590749943279
450000000                0.23133959669001422      -0.9180206832089713
480000000                0.15077733726977893      -0.9342764245837949
510000000                0.06918956428624856      -0.9435140228450986
540000000                -0.012817490061364723    -0.9456732826241503
570000000                -0.09463387672850275     -0.9407466955133696
600000000                -0.17565068487926114     -0.9287796158727529
630000000                -0.25526476121750685     -0.9098700121042462
660000000                -0.3328833698313474      -0.8841677990109855
690000000                -0.40792875896341185     -0.8518737593122687
720000000                -0.4798426053006346      -0.8132380641087527
750000000                -0.5480903042256722      -0.7685584043391565
780000000                -0.6121650731167787      -0.7181777486300867
810000000                -0.671591837731968       -0.6624817448222755
840000000                -0.7259308703655747      -0.6018957865621932
870000000                -0.7747811532087466      -0.5368817667871912
900000000                -0.817783438853465       -0.4679345448682507
930000000                -0.8546229839150898      -0.39557815567798743
960000000                -0.8850319347301886      -0.3203617898115285
990000000                -0.9087913451594171      -0.24285557848193948
1020000000               -0.9257328109256966      -0.16364621660467044
1050000000               -0.9357397076746983      -0.08333245880660634
1080000000               -0.9387480227588555      -0.0025205262955363935
1110000000               -0.9347467750728351      0.07818053983393838
1140000000               -0.9237780199762995      0.15816354010940695
1170000000               -0.9059364402330833      0.23682775616918655
1200000000               -0.8813685273652769      0.31358353016835033
1230000000               -0.8502713612445327      0.38785674783146107
1260000000               -0.8128909989073518      0.45909318986435094
1290000000               -0.7695204873635254      0.5267627161686766
1320000000               -0.7204975174696848      0.590363251416733
1350000000               -0.6662017395891676      0.6494245401068734
1380000000               -0.6070517638568207      0.7035116429797488
1410000000               -0.5435018704942111      0.7522281482957773
1440000000               -0.47603845817462176     0.7952190739697351
1470000000               -0.4051762592200852      0.83217344023808
1500000000               -0.3314543536220373      0.8628264940371069
1530000000               -0.25543201343404215     0.8869615706845148
1560000000               -0.1776844114923904      0.9044115804572018
1590000000               -0.09879822835339791     0.9150601113858716
1620000000               -0.01936719168106951     0.9188421425221573
1650000000               0.06001241684833154      0.9157443649645608
1680000000               0.13874625325177678      0.9058051111678611
1710000000               0.2162463673595271       0.889113895874658
1740000000               0.29193558998523716      0.8658105750422481
1770000000               0.3652518193366698       0.8360841317475478
1800000000               0.43565217484252533      0.8001711009084789
1830000000               0.5026169890225461       0.7583536470338078
1860000000               0.5656536092529291       0.710957311399109
1890000000               0.6242999822748918       0.658348447736586
1920000000               0.6781279973309087       0.6009313668762485
1950000000               0.7267465648955991       0.5391452129865743
1980000000               0.7698044101715308       0.4734605958453168
2010000000               0.8069925632152647       0.40437600438631327
2040000000               0.8380465289534762       0.3324140290853028
2070000000               0.8627481237009452       0.25811742037463564
2100000000               0.8809269660503098       0.18204501297819586
2130000000               0.8924616134396139       0.10476754499204105
2.16E9                   0.8972803374429162       0.026863402416450174
2.19E9                   0.895361533703463        -0.051085680787094224
2.22E9                   0.8867337646815155       -0.12849893600435786
2.25E9                   0.8714754360573889       -0.20480085651473023
2.28E9                   0.8497141099624028       -0.27942544671499764
2.31E9                   0.8216254606297192       -0.35182039452165903
2.34E9                   0.7874318802862249       -0.42145113779452903
2.37E9                   0.7474007451244294       -0.4878047968985748
2.4E9                    0.7018423529348269       -0.5503939461626147
2.43E9                   0.6511075449489507       -0.6087601984807147
2.46E9                   0.5955850255931635       -0.662477576802862
2.49E9                   0.5356983949132413       -0.7111556455901922
2.52E9                   0.4719029108124527       -0.7544423732234654
2.55E9                   0.40468200472169014      -0.7920266933187025
2.58E9                   0.33454358419914904      -0.8236407341101369
2.61E9                   0.2620161679656235       -0.8490616933400155
2.64E9                   0.18764490403427525      -0.8681133539736902
2.67E9                   0.11198751243104717      -0.8806672552818431
2.7E9                    0.035610171831646296     -0.8866435406595063
2.73E9                   -0.04091664930679322     -0.88601149025637
2.76E9                   -0.11702241688243618     -0.8787897237456145
2.79E9                   -0.19214079309349208     -0.8650460448960585
2.82E9                   -0.2657138970934         -0.8448969040446477
2.85E9                   -0.337196515665813       -0.8185064703649749
2.88E9                   -0.4060602155686958      -0.7860853215510523
2.91E9                   -0.47179731751499576     -0.7478887676343433
2.94E9                   -0.5339246980335581      -0.704214829355466
2.97E9                   -0.5919873909839879      -0.6554018919978972
3.0E9                    -0.6455619630113786      -0.6018260557966152
3.03E9                   -0.6942596390012077      -0.5438982046633114
3.06E9                   -0.7377291546803781      -0.48206081653686134
3.09E9                   -0.775659315452879       -0.41678454016857835
3.12E9                   -0.8077812422134804      -0.3485645652344319
3.15E9                   -0.8338702874352641      -0.2779168140860366
3.18E9                   -0.8537476070836721      -0.2053739854791013
3.21E9                   -0.8672813769813111      -0.13148148145245034
3.24E9                   -0.8743876450281519      -0.05679324981485091
3.27E9                   -0.8750308138253552      0.01813242499650783
3.3E9                    -0.8692237512197689      0.09273714920688829
3.33E9                   -0.8570275294679688      0.1664666319211435
3.36E9                   -0.8385507967215844      0.238774849410186
3.39E9                   -0.8139487875518147      0.3091281287666248
3.42E9                   -0.783421982120543       0.37700911968845596
3.45E9                   -0.747214426435103       0.44192062375399876
3.48E9                   -0.705611728771111       0.5033892522331479
3.51E9                   -0.6589387499215447      0.560968884960911
3.54E9                   -0.6075570071277304      0.6142439048407696
3.57E9                   -0.5518618139443372      0.6628321842515503
3.6E9                    -0.4922791798932504      0.7063878023366668
3.63E9                   -0.4292624957127328      0.7446034741659879
3.66E9                   -0.36328903125141765     0.7772126755571689
3.69E9                   -0.29485627411669973     0.8039914499435652
3.72E9                   -0.2244781382050837      0.8247598862282072
3.75E9                   -0.15268107143352339     0.8393832593965707
3.78E9                   -0.08000009255162849     0.847772828060654
3.81E9                   -0.0069747869337975395   0.8498862856583579
3.84E9                   0.06585470885936787      0.8457278644316939
3.87E9                   0.13795170388525513      0.8353480936475567
3.9E9                    0.20878690132579153      0.8188432159685393
3.93E9                   0.27784226927281674      0.7963542684698991
3.96E9                   0.34461480490968843      0.7680658375211016
3.99E9                   0.4086201640584287       0.7342044996762421
4.02E9                   0.4693961295807807       0.6950369635906718
4.05E9                   0.5265058940547969       0.6508679307545027
4.08E9                   0.5795411349957503       0.6020376948849239
4.11E9                   0.6281248637085568       0.5489195011791509
4.14E9                   0.671914031457622        0.491916687288591
4.17E9                   0.7106018791416816       0.43145962747683103
4.2E9                    0.7439200176683131       0.3680025015961775
4.23E9                   0.771640227374041        0.30201991042399057
4.26E9                   0.7935759653940857       0.23400336004556094
4.29E9                   0.8095835713089194       0.1644576390778211
4.32E9                   0.8195631632049715       0.09389711410227791
4.35E9                   0.823459218860095        0.022841969433798553
4.38E9                   0.8212608393419821       -0.048185582668745695
4.41E9                   0.8130016944578036       -0.1186650952142091
4.44E9                   0.7987596513020858       -0.18808165803105334
4.47E9                   0.7786560884443902       -0.2559296224073803
4.5E9                    0.752854899763706        -0.32171625360813655
4.53E9                   0.7215611935524109       -0.38496528602443114
4.56E9                   0.6850196947656958       -0.4452203549581579
4.59E9                   0.6435128607753221       -0.5020482796228727
4.62E9                   0.5973587238734585       -0.5550421721501828
4.65E9                   0.5469084763434141       -0.6038243490028425
4.68E9                   0.49254381666982994      -0.6480490224988018
4.71E9                   0.43467407741909236      -0.6874047526465298
4.74E9                   0.37373315711443916      -0.7216166417124088
4.77E9                   0.31017627937254777      -0.7504482565698825
4.8E9                    0.24447660350486677      -0.7737032659829496
4.83E9                   0.17712171080751027      -0.7912267822559432
4.86E9                   0.10860999147729622      -0.8029063980872793
4.89E9                   0.03944695734784372      -0.8086729111924179
4.92E9                   -0.029858493278451984    -0.8085007306923034
4.95E9                   -0.09879783177054176     -0.8024079612603506
4.98E9                   -0.1668666483927863      -0.7904561631889498
5.01E9                   -0.23356836594266223     -0.7727497891648363
5.04E9                   -0.2984178893477739      -0.7494353013065492
5.07E9                   -0.3609451624397837      -0.7206999749774146
5.1E9                    -0.42069860410707793     -0.6867703987772527
5.13E9                   -0.4772483968665232      -0.6479106830528139
5.16E9                   -0.5301896024551859      -0.604420392032585
5.19E9                   -0.5791450811340394      -0.5566322170162162
5.22E9                   -0.6237681935667568      -0.5049094100112184
5.25E9                   -0.6637452665214472      -0.4496429983764678
5.28E9                   -0.6987978056939266      -0.3912488017151073
5.31E9                   -0.7286844401891575      -0.3301642730790616
5.34E9                   -0.7532025845450203      -0.2668451873083117
5.37E9                   -0.7721898051770838      -0.20176220092207806
5.4E9                    -0.7855248798190934      -0.135397310111643
5.43E9                   -0.7931285411437504      -0.06824023503031958
5.46E9                   -0.7949638989075245      -7.847600795314853E-4
5.49E9                   -0.7910365384989533      0.06647493914531048
5.52E9                   -0.7813942975677897      0.13304795222126767
5.55E9                   -0.7661267257783314      0.19845024380967716
5.58E9                   -0.7453642359774979      0.26220818912931354
5.61E9                   -0.7192769577061991      0.3238620088088287
5.64E9                   -0.6880733059953741      0.38296907925279194
5.67E9                   -0.6519982795364028      0.4391070969934284
5.7E9                    -0.6113315026592256      0.49187707739414743
5.73E9                   -0.5663850254531966      0.5409061690264881
5.76E9                   -0.5175008968439266      0.5858502647886503
5.79E9                   -0.46504852703187827     0.6263963902819941
5.82E9                   -0.4094218589670187      0.662264849860064
5.85E9                   -0.35103637229530116     0.6932111126482173
5.88E9                   -0.29032594655828453     0.7190274243767856
5.91E9                   -0.22773961181053687     0.7395441357420305
5.94E9                   -0.1637382141440954      0.7546307425551122
5.97E9                   -0.09879102204579678     0.7641966360681541
6.0E9                    -0.033372297276944886    0.7681915637988547
