% Model:              three_layers reality at 0.1mm.mph
% Version:            COMSOL 5.6.0.280
% Date:               Feb 23 2022, 11:42
% Table:              表格 1 - 全局计算 1
% freq (Hz)              real(emw.S11) (1)        imag(emw.S11) (1)
300000000                0.40469836251850033      -0.7705541323485559
330000000                0.3212998985558878       -0.8061547935247231
360000000                0.23499066543265884      -0.8329577028655305
390000000                0.14666715910582423      -0.8507214702729625
420000000                0.05725125589595379      -0.8592990243319205
450000000                -0.03232146085253547     -0.8586395468366993
480000000                -0.12111294309221227     -0.8487892309836012
510000000                -0.20819357648424033     -0.8298908898001722
540000000                -0.2926527398169988      -0.8021824435207959
570000000                -0.37360898479851684     -0.7659943202534321
600000000                -0.4502197725411164      -0.7217458115987093
630000000                -0.5216906899909584      -0.6699404336636087
660000000                -0.5872840653119055      -0.6111603528908267
690000000                -0.6463269010504735      -0.5460599453464234
720000000                -0.6982180474627757      -0.47535856687567757
750000000                -0.7424345439886937      -0.39983262001686093
780000000                -0.7785370648867632      -0.3203070109206494
810000000                -0.8061744141500962      -0.2376460959574577
840000000                -0.8250870249556812      -0.15274422343583322
870000000                -0.8351094302854292      -0.06651597965805059
900000000                -0.836171682940638       0.020113748419422574
930000000                -0.8282997153266891      0.10621978013545663
960000000                -0.8116146416882821      0.19088660401619725
990000000                -0.7863310176758582      0.27321818416962057
1020000000               -0.7527540841440659      0.35234750045465635
1050000000               -0.7112760336612208      0.4274457169723513
1080000000               -0.6623713492235507      0.4977308785529302
1110000000               -0.6065912749126805      0.5624760416460485
1140000000               -0.544557487653472       0.621016753534293
1170000000               -0.4769550476164426      0.6727578023908782
1200000000               -0.4045247121331351      0.7171791700590537
1230000000               -0.3280547041207366      0.7538411294927628
1260000000               -0.24837203101896732     0.7823884392602986
1290000000               -0.1663334538590572      0.8025535985025538
1320000000               -0.08281620856888701     0.8141591367578253
1350000000               0.0012914172090553679    0.8171189242464953
1380000000               0.08509954856385776      0.8114384992530097
1410000000               0.1677261269660022       0.7972144200560206
1440000000               0.2483061534410588       0.7746326593642103
1470000000               0.3260006749252082       0.7439660692139471
1500000000               0.400005421854279        0.7055709537588323
1530000000               0.46955901019768087      0.659882796211898
1560000000               0.5339506272539332       0.6074111942986256
1590000000               0.5925271271406037       0.5487340659691667
1620000000               0.6446994693440736       0.48449119360568577
1650000000               0.6899484414470329       0.4153771806913584
1680000000               0.7278296154446992       0.3421338997442989
1710000000               0.7579774956981897       0.2655425142141278
1740000000               0.7801088254265999       0.18641516011849776
1770000000               0.7940250277596483       0.10558637529950428
1800000000               0.7996137666090807       0.023904365352219917
1830000000               0.7968496219796898       -0.05777780454894346
1860000000               0.7857938837049372       -0.13861100353451392
1890000000               0.7665934769699683       -0.21775872829610285
1920000000               0.7394790422249273       -0.2944056127507786
1950000000               0.704762200994593        -0.3677656761414894
1980000000               0.6628320472667149       -0.4370902386877843
2010000000               0.614150910992878        -0.5016754432123652
2040000000               0.5592494441410375       -0.5608693339029853
2070000000               0.4987210786595398       -0.6140784587788365
2100000000               0.4332158954969698       -0.6607739801955789
2130000000               0.3634339192465582       -0.7004972933227951
2.16E9                   0.2901178077919367       -0.7328651561212038
2.19E9                   0.21404483947650946      -0.7575743050042698
2.22E9                   0.1360180268816425       -0.7744054355736951
2.25E9                   0.0568561600535114       -0.7832262330246204
2.28E9                   -0.022617285174073666    -0.7839928479560222
2.31E9                   -0.10158600440079138     -0.7767489609538384
2.34E9                   -0.17925235953847665     -0.7616216869044694
2.37E9                   -0.2548466581230387      -0.7388144227564938
2.4E9                    -0.32763248137112805     -0.7085982870549589
2.43E9                   -0.39690790762470096     -0.6713050384153881
2.46E9                   -0.4620048491443634      -0.6273238626826694
2.49E9                   -0.5222899304306785      -0.5771020069519469
2.52E9                   -0.5771691411291957      -0.5211467463512434
2.55E9                   -0.6260959527966551      -0.4600256155229492
2.58E9                   -0.668580825834094       -0.3943632520307216
2.61E9                   -0.7041999664517021      -0.3248350168041684
2.64E9                   -0.7326021511767968      -0.2521585324137454
2.67E9                   -0.7535134042744452      -0.17708431495401533
2.7E9                    -0.7667398281482282      -0.10038627314637259
2.73E9                   -0.7721689991909615      -0.022852439956763726
2.76E9                   -0.7697702597879247      0.054723951055627086
2.79E9                   -0.7595941156232651      0.13155304137156645
2.82E9                   -0.7417708521626711      0.2068565952962209
2.85E9                   -0.7165084274901027      0.2798759275623241
2.88E9                   -0.6840896720872034      0.3498794970200948
2.91E9                   -0.6448688182893552      0.4161701340337873
2.94E9                   -0.5992673843248129      0.47809185647610264
2.97E9                   -0.5477694445536895      0.5350362224194378
3.0E9                    -0.49091632596392887     0.5864481653440807
3.03E9                   -0.4293007794604875      0.6318312590845349
3.06E9                   -0.36356068236550815     0.6707523636760213
3.09E9                   -0.29437233522183437     0.7028456092825746
3.12E9                   -0.2224434212933785      0.7278156827999391
3.15E9                   -0.14850570064549942     0.7454403901535465
3.18E9                   -0.07330751222181071     0.7555724760788536
3.21E9                   0.0023938431235000835    0.7581406915245927
3.24E9                   0.07783976781522953      0.7531501059906576
3.27E9                   0.1522780133457637       0.740681667380803
3.3E9                    0.22497024200423202      0.7208910149786893
3.33E9                   0.2951994416896433       0.6940065521633838
3.36E9                   0.36227712999228534      0.6603267853547329
3.39E9                   0.4255502796030225       0.6202169359148524
3.42E9                   0.48440788962498227      0.5741048342470244
3.45E9                   0.538287117209242        0.5224761123423733
3.48E9                   0.5866788735778409       0.4658687242414792
3.51E9                   0.6291327805956262       0.4048668445814732
3.54E9                   0.6652613831826664       0.3400942226972149
3.57E9                   0.6947435226660741       0.27220710083448946
3.6E9                    0.7173267990719989       0.20188683446608416
3.63E9                   0.7328290853988172       0.12983237376108012
3.66E9                   0.7411390990947674       0.05675277267205175
3.69E9                   0.7422160781135436       -0.016640115677679746
3.72E9                   0.7360886448545934       -0.08963861869489083
3.75E9                   0.7228529690432407       -0.16154578745982365
3.78E9                   0.7026703623165645       -0.23168142270803851
3.81E9                   0.6757644551367079       -0.2993875403733209
3.84E9                   0.6424181169641877       -0.3640332821553899
3.87E9                   0.6029702721702379       -0.4250193378106715
3.9E9                    0.5578127238003682       -0.48178200905999946
3.93E9                   0.5073870208834995       -0.5337970882108557
3.96E9                   0.4521813059832884       -0.5805837238414179
3.99E9                   0.39272698775382653      -0.6217083895398203
4.02E9                   0.32959503167997933      -0.6567889702139809
4.05E9                   0.2633916715180048       -0.6854988641129017
4.08E9                   0.1947534122186223       -0.7075709040312512
4.11E9                   0.12434129924407884      -0.7228008555881655
4.14E9                   0.05283453694805296      -0.7310502621107459
4.17E9                   -0.01907637881866986     -0.7322484639607675
4.2E9                    -0.09069680783932005     -0.7263937028811999
4.23E9                   -0.16133518893647542     -0.71355330444003
4.26E9                   -0.23031017225811556     -0.6938629941603485
4.29E9                   -0.29695754553410814     -0.6675254347784407
4.32E9                   -0.36063688990349063     -0.6348080731191887
4.35E9                   -0.42073793532928827     -0.5960403642553603
4.38E9                   -0.4766865975396541      -0.5516104118610622
4.41E9                   -0.527950670467529       -0.5019610404462461
4.44E9                   -0.5740451288107776      -0.4475853059741837
4.47E9                   -0.6145369749295668      -0.38902145794729964
4.5E9                    -0.6490495508626677      -0.3268473847683384
4.53E9                   -0.6772662337815956      -0.261674599062293
4.56E9                   -0.698933442404083       -0.19414184479408583
4.59E9                   -0.7138629014018694      -0.12490842871478902
4.62E9                   -0.7219331382695187      -0.05464739080549957
4.65E9                   -0.723090218487403       0.0159613711868003
4.68E9                   -0.7173477542099174      0.08623792162026556
4.71E9                   -0.7047862412751802      0.15550897565302055
4.74E9                   -0.6855517821951054      0.2231144128051258
4.77E9                   -0.6598542370309612      0.28841359753323187
4.8E9                    -0.6279648158768509      0.35079149822657896
4.83E9                   -0.5902130991177342      0.40966458299377867
4.86E9                   -0.5469834589851502      0.4644864397564275
4.89E9                   -0.4987108667054231      0.5147530319715704
4.92E9                   -0.4458761025702198      0.5600074748455934
4.95E9                   -0.38900043245731997     0.5998442107890068
4.98E9                   -0.3286398609662099      0.6339124809062884
5.01E9                   -0.2653791067324048      0.6619190285709318
5.04E9                   -0.19982546092242295     0.6836300244001966
5.07E9                   -0.13260267982320856     0.6988722592259751
5.1E9                    -0.06434502564241189     0.7075337001341495
5.13E9                   0.004308488604883465     0.7095635300824537
5.16E9                   0.07271965957013275      0.704971782179461
5.19E9                   0.14025651873411535      0.6938286333695819
5.22E9                   0.2062986932593626       0.6762633531462765
5.25E9                   0.27024273698568885      0.6524628404741076
5.28E9                   0.331507394698121        0.6226696585656651
5.31E9                   0.3895386911580838       0.5871795084884428
5.34E9                   0.4438147024109981       0.5463381559517252
5.37E9                   0.493849889344359        0.5005379048520269
5.4E9                    0.539198941124582        0.4502137576215294
5.43E9                   0.5794601559389863       0.39583939654058775
5.46E9                   0.6142784434364572       0.33792306922078463
5.49E9                   0.6433480480380201       0.2770033906524949
5.52E9                   0.666415065368441        0.21364501149019702
5.55E9                   0.6832797699197602       0.14843406636059386
5.58E9                   0.6937987091413391       0.08197331338015866
5.61E9                   0.6978864631576635       0.014876904411131915
5.64E9                   0.6955169318476074       -0.0522352217322694
5.67E9                   0.6867240012566995       -0.11874326277572811
5.7E9                    0.6716014667990479       -0.1840336623160208
5.73E9                   0.6503021531444461       -0.24750522087655413
5.76E9                   0.6230362583487907       -0.3085750111944341
5.79E9                   0.5900690338463201       -0.3666839402316945
5.82E9                   0.551717956527085        -0.42130188318641554
5.85E9                   0.5083495332162465       -0.47193240460399377
5.88E9                   0.46037581245187165      -0.5181171362582958
5.91E9                   0.4082506008259701       -0.5594398793035784
5.94E9                   0.3524653304115486       -0.5955304499548334
5.97E9                   0.2935445175865125       -0.6260682250696578
6.0E9                    0.2320407844422938       -0.650785295640246
