% Model:              three_layers reality at 0.1mm.mph
% Version:            COMSOL 5.6.0.280
% Date:               Mar 8 2022, 19:15
% Table:              表格 1 - 全局计算 1
% freq (Hz)              real(emw.S11) (1)        imag(emw.S11) (1)
300000000                0.41054907255490874      -0.7781601377172453
330000000                0.3263360570590747       -0.8143735861911385
360000000                0.2391532901769148       -0.8416972815897188
390000000                0.1499064770461402       -0.859885963543971
420000000                0.05952704699092859      -0.8687889436232132
450000000                -0.03103946627318841     -0.868352306346284
480000000                -0.12084468702638418     -0.8586198650339517
510000000                -0.2089483604473247      -0.8397329167159502
540000000                -0.2944290042375459      -0.8119288362693289
570000000                -0.3763941984227138      -0.7755385514319694
600000000                -0.4539904422232646      -0.7309829453585829
630000000                -0.5264124968456166      -0.6787682405412737
660000000                -0.5929121294595688      -0.6194804259922787
690000000                -0.6528061742122184      -0.5537787983404602
720000000                -0.7054838303985743      -0.48238869576975524
750000000                -0.7504131234588477      -0.40609351238990615
780000000                -0.7871464633732969      -0.3257260871749086
810000000                -0.8153252433351961      -0.24215956939884895
840000000                -0.8346834331418352      -0.1562978664776184
870000000                -0.8450501321902197      -0.06906578571747388
900000000                -0.8463510594642593      0.01860101651432351
930000000                -0.8386089699324825      0.10576616287235821
960000000                -0.8219429993197768      0.19150264474316447
990000000                -0.7965669516643067      0.274902759575234
1020000000               -0.7627865562636608      0.3550877843625045
1050000000               -0.7209957323732756      0.43121727806385324
1080000000               -0.6716719113240343      0.502497910792217
1110000000               -0.615370476017396       0.568191724751009
1140000000               -0.5527183875231335      0.6276237389964987
1170000000               -0.4844070769416387      0.6801888191527898
1200000000               -0.41118468827842697     0.7253577424759192
1230000000               -0.3338477642494591      0.762682398960833
1260000000               -0.25323247213689587     0.791800079710943
1290000000               -0.17020547058530688     0.8124368149102994
1320000000               -0.08565452060072509     0.8244097350362044
1350000000               -4.789455636167617E-4    0.827628440110439
1380000000               0.0844199552180422       0.8220953731486431
1410000000               0.16814843589932096      0.8079052048742059
1440000000               0.2498296752221677       0.7852432474307949
1470000000               0.3286128917132768       0.7543829250033003
1500000000               0.40368210946668237      0.7156823388714211
1530000000               0.4742644863726364       0.6695799734068667
1560000000               0.5396381228367897       0.6165895977339636
1590000000               0.5991392755666478       0.5572944253175967
1620000000               0.652168908636368        0.49234060034129734
1650000000               0.6981985218346886       0.42243008555990447
1680000000               0.7367752046710176       0.3483130312678202
1710000000               0.7675258731652126       0.27077970897951764
1740000000               0.7901606554703857       0.19065209665429877
1770000000               0.8044754016750698       0.10877520431774597
1800000000               0.8103533023870153       0.02600823036240878
1830000000               0.8077656102653791       -0.05678436109931526
1860000000               0.7967714681131647       -0.138741752171249
1890000000               0.7775168567132522       -0.2190155847999558
1920000000               0.7502326849433832       -0.2967785917812235
1950000000               0.7152320538497001       -0.37123296584225185
1980000000               0.6729067347843263       -0.4416183945512542
2010000000               0.6237229087761076       -0.5072196983517296
2040000000               0.5682162186632106       -0.5673740216997686
2070000000               0.5069861847439386       -0.6214775432575227
2100000000               0.4406900248982785       -0.6689916894633338
2130000000               0.37003589565462747      -0.7094488525646547
2.16E9                   0.29577552509958255      -0.7424576194372006
2.19E9                   0.2186961399162149       -0.7677074903204736
2.22E9                   0.13961151128964389      -0.7849729735803576
2.25E9                   0.05935191139924463      -0.7941167469489243
2.28E9                   -0.02124710371812473     -0.7950912800194747
2.31E9                   -0.101356740232732       -0.7879380437408963
2.34E9                   -0.1801667279675117      -0.7727835160082182
2.37E9                   -0.2568949239587596      -0.7498320288143252
2.4E9                    -0.3307929523039553      -0.7193570646961014
2.43E9                   -0.40114763014555255     -0.6816939125096524
2.46E9                   -0.46728033866870133     -0.6372361691841514
2.49E9                   -0.5285477989026791      -0.5864361811313922
2.52E9                   -0.5843465889722901      -0.529806965220441
2.55E9                   -0.6341211918737392      -0.46792250633938437
2.58E9                   -0.6773735380244688      -0.401414697907272
2.61E9                   -0.7136718800225093      -0.33096702304338566
2.64E9                   -0.7426577709588141      -0.2573060896620608
2.67E9                   -0.7640508928468809      -0.18119219975429146
2.7E9                    -0.777652014242111       -0.1034097443512241
2.73E9                   -0.7833444830898243      -0.02475780738392351
2.76E9                   -0.7810945868890049      0.053958896609989496
2.79E9                   -0.7709509933134193      0.1319387399438162
2.82E9                   -0.7530433892220488      0.20839157057769417
2.85E9                   -0.7275803783995363      0.28254677794194943
2.88E9                   -0.6948466708585843      0.35366102095811935
2.91E9                   -0.65519958799146        0.4210255851698099
2.94E9                   -0.6090649095214481      0.48397332331568776
2.97E9                   -0.5569320947468611      0.5418851266685234
3.0E9                    -0.49934891883919097     0.5941958722848912
3.03E9                   -0.4369155734690254      0.6403997925611468
3.06E9                   -0.3702782889575815      0.6800552174425316
3.09E9                   -0.30012254190533183     0.7127886456690836
3.12E9                   -0.2271659176751716      0.7382981088964363
3.15E9                   -0.1521507006464205      0.7563558010893789
3.18E9                   -0.07583626682126124     0.766809954446437
3.21E9                   0.001008647068495172     0.7695859516793226
3.24E9                   0.0776137260262475       0.7646866717995495
3.27E9                   0.15321484206056263      0.7521920720054758
3.3E9                    0.22706173676765468      0.7322580113946201
3.33E9                   0.29842555753179917      0.705114323265577
3.36E9                   0.36660618300878306      0.671062142566868
3.39E9                   0.4309392694447164       0.6304704951041771
3.42E9                   0.4908029418918384       0.5837721573923775
3.45E9                   0.5456240440762928       0.5314588027437648
3.48E9                   0.5948838498681613       0.4740754622622008
3.51E9                   0.6381231309340749       0.41221435000905116
3.54E9                   0.6749464736121965       0.34650812915599594
3.57E9                   0.7050257471963338       0.2776227276867774
3.6E9                    0.7281026484580988       0.20624984238577115
3.63E9                   0.7439902821935065       0.1330992920937387
3.66E9                   0.7525737802423216       0.058891389695798206
3.69E9                   0.7538100044521269       -0.0156505046875101
3.72E9                   0.7477264160504877       -0.08980710638010808
3.75E9                   0.7344192227498518       -0.1628698885652561
3.78E9                   0.7140509377515258       -0.23414723944569382
3.81E9                   0.6868475038421089       -0.30297004672262284
3.84E9                   0.6530951474053606       -0.3686967113503879
3.87E9                   0.6131371200553624       -0.4307176550184852
3.9E9                    0.567370446115215        -0.4884594510218742
3.93E9                   0.5162427176148331       -0.5413887540695902
3.96E9                   0.46024887792795294      -0.5890162063313865
3.99E9                   0.399927840404861        -0.6309004422337132
4.02E9                   0.3358587333981314       -0.6666522129145227
4.05E9                   0.2686565695766621       -0.6959385330204555
4.08E9                   0.1989672041781681       -0.7184866548681961
4.11E9                   0.1274615512754192       -0.7340876261965997
4.14E9                   0.05482913658697282      -0.7425991969127165
4.17E9                   -0.01822884963915925     -0.7439478973612625
4.2E9                    -0.09100679272044268     -0.7381301935502385
4.23E9                   -0.16280198034269322     -0.7252127085293865
4.26E9                   -0.23292184501078267     -0.7053315634021378
4.29E9                   -0.3006910035723051      -0.6786909250219982
4.32E9                   -0.3654580265720892      -0.6455608497181003
4.35E9                   -0.42660190574718526     -0.6062744920594093
4.38E9                   -0.4835382007766965      -0.5612247187707173
4.41E9                   -0.5357248390469023      -0.510860144100114
4.44E9                   -0.5826675227783045      -0.45568059313807735
4.47E9                   -0.6239246771422039      -0.3962320057149274
4.5E9                    -0.6591118589749221      -0.33310081211648696
4.53E9                   -0.6879055426449562      -0.26690783704529414
4.56E9                   -0.7100462085003247      -0.1983018138850237
4.59E9                   -0.7253406787009733      -0.12795261272715475
4.62E9                   -0.7336636728564998      -0.056544298577272216
4.65E9                   -0.7349585878330424      0.015231862897784719
4.68E9                   -0.7292375362903926      0.0866843478386643
4.71E9                   -0.7165806990273729      0.15712818667939016
4.74E9                   -0.6971350498504156      0.22589160065693586
4.77E9                   -0.6711124962962219      0.2923224432572908
4.8E9                    -0.6387874510729165      0.35579443777654063
4.83E9                   -0.6004938207994794      0.4157131895795656
4.86E9                   -0.5566213850303726      0.4715219207033867
4.89E9                   -0.5076115486647325      0.5227068375318872
4.92E9                   -0.45395248378206593     0.5688020147021539
4.95E9                   -0.39617372371306153     0.6093936713021851
4.98E9                   -0.3348403199179787      0.6441237327837783
5.01E9                   -0.2705467090360337      0.6726926112521143
5.04E9                   -0.20391045424529353     0.69486119072038
5.07E9                   -0.1355660159451773      0.7104520624646086
5.1E9                    -0.06615867033591734     0.7193501057640136
5.13E9                   0.0036613643991584514    0.7215025365094794
5.16E9                   0.07324460134586097      0.7169185379938753
5.19E9                   0.14194781642894228      0.7056685421310472
5.22E9                   0.20913951067863296      0.6878831592959398
5.25E9                   0.2742053397951443       0.6637516906650013
5.28E9                   0.336553475719203        0.6335201314641777
5.31E9                   0.3956197914743479       0.5974886038460798
5.34E9                   0.4508727245404487       0.5560082319970696
5.37E9                   0.5018176953410741       0.5094775530452543
5.4E9                    0.5480010253124118       0.45833860596698345
5.43E9                   0.5890133804158609       0.4030728362841024
5.46E9                   0.6244928250363775       0.34419690358943456
5.49E9                   0.6541275877499871       0.2822584071253403
5.52E9                   0.6776586144017802       0.21783148019318427
5.55E9                   0.694881929630504        0.15151216640448906
5.58E9                   0.7056507640200114       0.0839134867767147
5.61E9                   0.7098773465110768       0.015660134247097512
5.64E9                   0.7075342224796639       -0.05261721504464844
5.67E9                   0.6986549465714387       -0.12028791529991803
5.7E9                    0.68333402385591         -0.1867275588459518
5.73E9                   0.6617260353329663       -0.25132419213777357
5.76E9                   0.6340439727565731       -0.3134843387045827
5.79E9                   0.6005568940845578       -0.3726386668237669
5.82E9                   0.5615870578720855       -0.4282472231672581
5.85E9                   0.5175066804899361       -0.4798042454959407
5.88E9                   0.4687343944874073       -0.5268426243799719
5.91E9                   0.41573140728347924      -0.5689380833309355
5.94E9                   0.3589973066989714       -0.6057130986819986
5.97E9                   0.2990654521944164       -0.6368405166904032
6.0E9                    0.236497921049871        -0.662046775539708
