% Model:              three_layers reality at 0.1mm.mph
% Version:            COMSOL 5.6.0.280
% Date:               Apr 19 2022, 19:59
% Table:              表格 1 - 全局计算 1
% freq (Hz)              real(emw.S11) (1)        imag(emw.S11) (1)
300000000                0.6221563711769247       -0.7614719227632079
330000000                0.5526265114361024       -0.8135452358506087
360000000                0.47880272476462765      -0.8592776544937197
390000000                0.4012617424718961       -0.8983173781910209
420000000                0.32060908747317396      -0.93036476955948
450000000                0.2374743711171357       -0.9551747673313695
480000000                0.15250637895254526      -0.9725588626831378
510000000                0.06636798844240292      -0.9823866237214944
540000000                -0.02026903863290972     -0.9845867559049941
570000000                -0.10672934489576368     -0.9791476893415925
600000000                -0.19233930386451076     -0.9661176878004195
630000000                -0.276432341585725       -0.9456044775022461
660000000                -0.35835420790719424     -0.9177743977647425
690000000                -0.43746815560155916     -0.8828510790866515
720000000                -0.5131599830026923      -0.8411136586442538
750000000                -0.5848428993374732      -0.7928945463902045
780000000                -0.6519621708621082      -0.7385767596946086
810000000                -0.7139995095018317      -0.6785908474410223
840000000                -0.770477166704576       -0.6134114284734249
870000000                -0.820961697344824       -0.5435533733180868
900000000                -0.8650673625045935      -0.4695676601458713
930000000                -0.9024591417246441      -0.392036940157251
960000000                -0.9328553294708541      -0.31157084965977744
990000000                -0.9560296941940534      -0.22880110816651245
1020000000               -0.9718131818550259      -0.14437644475714057
1050000000               -0.9800951504364817      -0.05895739529086113
1080000000               -0.980824125786541       0.026788984858584913
1110000000               -0.9740080737037904      0.11219444771523744
1140000000               -0.9597141874900811      0.19659487409084828
1170000000               -0.9380681945416831      0.27933554460449556
1200000000               -0.9092531899715         0.3597763157083722
1230000000               -0.873508009284441       0.4372966581863369
1260000000               -0.8311251563568082      0.5113005160339917
1290000000               -0.7824483066343624      0.5812209464156538
1320000000               -0.727869409189855       0.6465245032037517
1350000000               -0.6678254144717943      0.7067153295266646
1380000000               -0.6027946576271132      0.7613389275453134
1410000000               -0.533292929919706       0.8099855768915092
1440000000               -0.4598692729745575      0.8522933766680012
1470000000               -0.38310153265319313     0.8879508893249011
1500000000               -0.3035917106208323      0.9166993686064958
1530000000               -0.2219611531648229      0.9383345572937023
1560000000               -0.1388456171670022      0.9527080444816298
1590000000               -0.054890253923888827    0.9597281757261483
1620000000               0.0292554488477359       0.9593605132687627
1650000000               0.11294272649587285      0.9516278471110523
1680000000               0.19552855891616192      0.936609761314718
1710000000               0.27638061539853975      0.9144417632985352
1740000000               0.35488208559492346      0.8853139871189909
1770000000               0.43043636052044865      0.8494694848518943
1800000000               0.5024715295794115       0.807202122998464
1830000000               0.5704446612748898       0.7588541035409109
1860000000               0.633845837383505        0.7048131317371787
1890000000               0.6922019127361371       0.645509254895244
1920000000               0.745079974890738        0.5814113985070998
1950000000               0.7920904806711455       0.5130236277733139
1980000000               0.8328900489663398       0.4408811641900816
2010000000               0.8671838918596972       0.36554618821386753
2040000000               0.8947278688582192       0.2876034600946353
2070000000               0.9153301516632187       0.20765579206039916
2100000000               0.9288524898257337       0.12631940538730327
2130000000               0.9352110702297886       0.04421920688071562
2.16E9                   0.934376966316896        -0.03801598079641926
2.19E9                   0.9263761756987337       -0.11975820028607181
2.22E9                   0.9112892476311135       -0.20038511760015118
2.25E9                   0.8892505046365508       -0.2792847229465785
2.28E9                   0.8604468652669142       -0.3558599408816465
2.31E9                   0.8251162777233099       -0.42953311696256674
2.34E9                   0.783545776407442        -0.4997503497058049
2.37E9                   0.7360691757527832       -0.5659856376653607
2.4E9                    0.68306441724462         -0.6277448133362834
2.43E9                   0.6249505865830394       -0.6845692368086361
2.46E9                   0.5621846182380953       -0.7360392227439359
2.49E9                   0.49525770511040684      -0.7817771730063413
2.52E9                   0.42469143257699804      -0.8214503842449226
2.55E9                   0.35103366270810277      -0.854773494714089
2.58E9                   0.2748542065574528       -0.8815105329498505
2.61E9                   0.19674034001129126      -0.9014765380113214
2.64E9                   0.11729223103565599      -0.9145387426578697
2.67E9                   0.03711834084167283      -0.9206173404893812
2.7E9                    -0.04316916615376076     -0.9196858773742838
2.73E9                   -0.12295900256004694     -0.911771299309558
2.76E9                   -0.20164534183751376     -0.8969536577355739
2.79E9                   -0.27863240420206115     -0.8753654441373167
2.82E9                   -0.353339012630907       -0.8471905194920426
2.85E9                   -0.4252030646161844      -0.8126626200631373
2.88E9                   -0.49368585974225687     -0.7720634440682923
2.91E9                   -0.5582762309412833      -0.7257203407547934
2.94E9                   -0.6184944379861236      -0.6740036315833526
2.97E9                   -0.6738957912750712      -0.6173235948227904
3.0E9                    -0.7240739793456714      -0.5561271445691269
3.03E9                   -0.7686640771521889      -0.49089423459924286
3.06E9                   -0.8073452142169407      -0.42213401801294054
3.09E9                   -0.8398428841213234      -0.3503807943914813
3.12E9                   -0.8659308789605616      -0.2761897778761028
3.15E9                   -0.8854328353624482      -0.2001327206098459
3.18E9                   -0.8982233815615193      -0.12279342749259661
3.21E9                   -0.904228878476852       -0.04476319884402294
3.24E9                   -0.9034277511353683      0.033363761894234845
3.27E9                   -0.895850410302545       0.11099493801518034
3.3E9                    -0.8815787677245107      0.18754405014870723
3.33E9                   -0.8607453517670369      0.26243553113344786
3.36E9                   -0.8335320336049465      0.33510888984577225
3.39E9                   -0.8001683772465289      0.405022929955277
3.42E9                   -0.7609296297301427      0.4716597910626922
3.45E9                   -0.7161343706162746      0.534528781614737
3.48E9                   -0.6661418424733987      0.5931699751187394
3.51E9                   -0.6113489865511179      0.6471575432810839
3.54E9                   -0.552187209812305       0.6961028024891349
3.57E9                   -0.48911891144040587     0.7396569525671668
3.6E9                    -0.4226337985474866      0.777513489593505
3.63E9                   -0.3532450219489544      0.809410277642919
3.66E9                   -0.28148516391967376     0.8351312672529034
3.69E9                   -0.20790211029746564     0.8545078515861709
3.72E9                   -0.13305483964367879     0.8674198542164974
3.75E9                   -0.05750916186547244     0.8737961454565153
3.78E9                   0.01816656144724611      0.8736148867827943
3.81E9                   0.09340568339751823      0.8669034054900696
3.84E9                   0.16764749381433736      0.8537377040080767
3.87E9                   0.2403413664073277       0.8342416105864884
3.9E9                    0.3109508011026728       0.8085855803373403
3.93E9                   0.3789573321646854       0.7769851580814552
3.96E9                   0.44386427351918556      0.7396991171161806
3.99E9                   0.5052002738159608       0.6970272909592068
4.02E9                   0.5625226556789509       0.6493081180561223
4.05E9                   0.6154205160113716       0.5969159222867143
4.08E9                   0.6635175676253227       0.5402579541830209
4.11E9                   0.7064747060457326       0.47977121896874264
4.14E9                   0.7439922888306143       0.41591911757276806
4.17E9                   0.7758121174878347       0.349187925931961
4.2E9                    0.8017191137059574       0.2800831368210315
4.23E9                   0.8215426822940327       0.209125687996549
4.26E9                   0.8351577537657026       0.1368481007167943
4.29E9                   0.8424855004185283       0.0637905539229212
4.32E9                   0.8434937216517832       -0.009503079357822323
4.35E9                   0.8381968968988123       -0.08248920602853077
4.38E9                   0.8266559073577668       -0.15462847018020542
4.41E9                   0.8089774300626709       -0.22538966725638293
4.44E9                   0.7853130093940259       -0.294253589949447
4.47E9                   0.7558578121272664       -0.3607167812726494
4.5E9                    0.720849073000704        -0.4242951703711227
4.53E9                   0.6805642391391444       -0.48452756609303144
4.56E9                   0.6353188236903119       -0.5409789828681987
4.59E9                   0.585463981825573        -0.5932437731660202
4.62E9                   0.531383825358175        -0.6409485414129629
4.65E9                   0.4734924955308499       -0.6837548155193574
4.68E9                   0.41223101645362625      -0.7213614543544367
4.71E9                   0.3480639541751373       -0.7535067722367194
4.74E9                   0.28147590798619987      -0.7799703647275003
4.77E9                   0.21296786156506542      -0.8005746231581098
4.8E9                    0.14305342177448513      -0.8151859282828762
4.83E9                   0.07225497274298878      -0.8237155158575682
4.86E9                   0.0010997727002118652    -0.8261200087970647
4.89E9                   -0.06988397886216191     -0.8224016120932242
4.92E9                   -0.1401710755740387      -0.8126079682408707
4.95E9                   -0.20924321125181358     -0.7968316728155383
4.98E9                   -0.2765928300123079      -0.775209452244246
5.01E9                   -0.3417268892803204      -0.7479210086570304
5.04E9                   -0.4041705056473238      -0.7151875398095836
5.07E9                   -0.4634704539554056      -0.6772699453412532
5.1E9                    -0.5191984910495115      -0.6344667338809034
5.13E9                   -0.5709544772547818      -0.5871116486991892
5.16E9                   -0.6183692708457998      -0.535571032470778
5.19E9                   -0.6611073733667852      -0.48024095433141833
5.22E9                   -0.6988693070298512      -0.4215441239377893
5.25E9                   -0.7313937082967288      -0.35992661826335165
5.28E9                   -0.7584591244446922      -0.2958544469557511
5.31E9                   -0.7798855017067728      -0.2298099820864512
5.34E9                   -0.7955353548073183      -0.16228827845787164
5.37E9                   -0.805314608802383       -0.09379331193455942
5.4E9                    -0.8091731059862722      -0.0248341648330897
5.43E9                   -0.8071047732786414      0.044078810600003064
5.46E9                   -0.7991474491345318      0.11243781850874027
5.49E9                   -0.7853823730630023      0.17974140294264981
5.52E9                   -0.7659333449549975      0.2454981566636073
5.55E9                   -0.7409655652714774      0.30923032477542267
5.58E9                   -0.7106841705590323      0.3704772748626535
5.61E9                   -0.6753324815457967      0.4287988081621801
5.64E9                   -0.6351899830594641      0.4837782894639706
5.67E9                   -0.5905700557913026      0.5350255768611902
5.7E9                    -0.5418174796759584      0.5821797351677738
5.73E9                   -0.48930572760985513     0.6249115184367565
5.76E9                   -0.43343406769982373     0.6629256068974084
5.79E9                   -0.37462449302689693     0.6959625827780798
5.82E9                   -0.3133185009650468      0.7238006288725931
5.85E9                   -0.24997374804984426     0.7462569353502334
5.88E9                   -0.18506061009011782     0.7631888042093652
5.91E9                   -0.11905867868796759     0.7744944463455421
5.94E9                   -0.052453224262999504    0.7801134716499256
5.97E9                   0.014268346957621247     0.7800270764097159
6.0E9                    0.08062001776216424      0.7742579343371239
