% Model:              three_layers reality at 0.1mm.mph
% Version:            COMSOL 5.6.0.280
% Date:               Apr 19 2022, 17:04
% Table:              表格 1 - 全局计算 1
% freq (Hz)              real(emw.S11) (1)        imag(emw.S11) (1)
300000000                0.6223305578642013       -0.761318690823307
330000000                0.5528335435607575       -0.8133927297692299
360000000                0.4790438441254239       -0.8591307202129563
390000000                0.4015375405896423       -0.8981810861304393
420000000                0.32091948092674233      -0.9302443295573997
450000000                0.23781858681909293      -0.9550754427673832
480000000                0.15288294913125888      -0.9724858844680937
510000000                0.06677475523304502      -0.9823451048791718
540000000                -0.019834909085345666    -0.984581607544647
570000000                -0.10627133905599565     -0.9791835388886123
600000000                -0.19186152843539903     -0.9661988003554334
630000000                -0.2759394823050997      -0.9457346812476953
660000000                -0.3578514803270406      -0.9179570142378165
690000000                -0.43696124809704506     -0.883088859185166
720000000                -0.5126549928317915      -0.8414087250881315
750000000                -0.584346262136946       -0.7932483435356573
780000000                -0.6514805848772897      -0.7389900110914696
810000000                -0.7135398550160676      -0.679063521890771
840000000                -0.7700464216354894      -0.613942715105061
870000000                -0.8205668501953982      -0.5441416658563353
900000000                -0.864715323422784       -0.47021055090838326
930000000                -0.9021566529340421      -0.3927312236824026
960000000                -0.9326088759351694      -0.3123125363078385
990000000                -0.9558454157311467      -0.22958544739305486
1020000000               -0.9716967876664241      -0.14519795803289634
1050000000               -0.9800518371165587      -0.05980991831187368
1080000000               -0.9808584997916286      0.02591225098903921
1110000000               -0.9741240792451356      0.11130087694829163
1140000000               -0.9599150407197178      0.19569234806601093
1170000000               -0.9383563248808081      0.27843237806325083
1200000000               -0.9096301892865717      0.35888117569537015
1230000000               -0.8739745896106537      0.4364184776388236
1260000000               -0.8316811166619221      0.5104484029051249
1290000000               -0.7830925091763548      0.5804040890689601
1320000000               -0.7285997657139563      0.6457520733187653
1350000000               -0.6686388825760912      0.7059963833966276
1380000000               -0.6036872473633274      0.7606823069246854
1410000000               -0.5342597206811514      0.8093998104137015
1440000000               -0.4609044405816278      0.8517865828991374
1470000000               -0.3841983864230882      0.8875306825114073
1500000000               -0.30474274011425984     0.916372768126644
1530000000               -0.22315808418490157     0.9381079017951823
1560000000               -0.14007947653778263     0.9525869116153434
1590000000               -0.056151442432372       0.9597173083549381
1620000000               0.027977076035887907     0.9594637529506973
1650000000               0.11165777262881989      0.9518480755822802
1680000000               0.19424799257872982      0.9369488506257095
1710000000               0.2751156723983376       0.9149005351516503
1740000000               0.3536441666522656       0.885892181904973
1770000000               0.42923692586965745      0.850165740736113
1800000000               0.5013219913738333       0.8080139653595213
1830000000               0.5693562748276015       0.7597779449519044
1860000000               0.6328295923144229       0.7058442825502741
1890000000               0.6912684249740786       0.646641944472404
1920000000               0.744239380636019        0.5826388069327892
1950000000               0.7913523332631869       0.5143379278953657
1980000000               0.8322632196773881       0.4422735736633634
2010000000               0.8666764755413656       0.3670070311906429
2040000000               0.8943470953746794       0.2891222380689195
2070000000               0.9150823039817407       0.20922126327490004
2100000000               0.9287428295423873       0.12791967227422812
2130000000               0.9352437713270008       0.04584181068941794
2.16E9                   0.9345550578046766       -0.036383958872410194
2.19E9                   0.9267014937566004       -0.1181300323684072
2.22E9                   0.911762397778486        -0.198774317625098
2.25E9                   0.8898708343512709       -0.2777049314659588
2.28E9                   0.8612124474127079       -0.3543248069802768
2.31E9                   0.8260239049785938       -0.42805617848626165
2.34E9                   0.7845909668879841       -0.49834491261385766
2.37E9                   0.737246189780861        -0.5646646556878244
2.4E9                    0.6843662852610599       -0.6265207687482409
2.43E9                   0.6263691480747315       -0.6834540232484163
2.46E9                   0.5637105715929256       -0.7350440308690575
2.49E9                   0.4968806683365509       -0.7809123798006511
2.52E9                   0.42640001510954306      -0.8207254467663543
2.55E9                   0.3528155484648663       -0.85419684950745
2.58E9                   0.27669624841052054      -0.8810895027440916
2.61E9                   0.19862866534711154      -0.901217247839673
2.64E9                   0.11921235700270466      -0.9144460477554818
2.67E9                   0.03905529687142711      -0.9206947677061837
2.7E9                    -0.041230711473954434    -0.9199355805994188
2.73E9                   -0.12103461277937644     -0.9121940280878947
2.76E9                   -0.19975068344342564     -0.8975487376224897
2.79E9                   -0.2767831172068202      -0.8761307676350646
2.82E9                   -0.3515505806827598      -0.8481225472431598
2.85E9                   -0.42349068469644546     -0.8137563926848712
2.88E9                   -0.4920643119551305      -0.7733126053280569
2.91E9                   -0.5567597494045341      -0.7271171727153533
2.94E9                   -0.6170965842069237      -0.6755391020022187
2.97E9                   -0.6726293314128147      -0.6189874167952537
3.0E9                    -0.7229507667767122      -0.5579078480983157
3.03E9                   -0.7676949416603668      -0.4927792495448892
3.06E9                   -0.8065398590132334      -0.4241097676945648
3.09E9                   -0.8392097917396408      -0.3524327990746199
3.12E9                   -0.865477227043075       -0.27830276712508145
3.15E9                   -0.8851644231368697      -0.2022907535719508
3.18E9                   -0.898144567771746       -0.12498001998101178
3.21E9                   -0.9043425313703793      -0.04696145609522453
3.24E9                   -0.9037352110062993      0.031171008001276868
3.27E9                   -0.8963514649612832      0.10882498848058562
3.3E9                    -0.8822716411361228      0.18541419639960693
3.33E9                   -0.8616267059893485      0.26036291182325133
3.36E9                   -0.8345969840127299      0.3331103482149184
3.39E9                   -0.8014105209231114      0.40311487297354137
3.42E9                   -0.762341086780972       0.46985805158020355
3.45E9                   -0.7177058380527704      0.5328484847150672
3.48E9                   -0.6678626601967244      0.5916254098180153
3.51E9                   -0.6132072148901784      0.6457620406417389
3.54E9                   -0.5541697179360593      0.6948686212026645
3.57E9                   -0.4912114759239902      0.7385951729326379
3.6E9                    -0.4248212112379859      0.7766339167965317
3.63E9                   -0.35551120626386457     0.8087213551036293
3.66E9                   -0.2838132985873316      0.8346400007691739
3.69E9                   -0.21027475951308203     0.8542197448732938
3.72E9                   -0.13545408860587446     0.8673388563366902
3.75E9                   -0.05991675659144864     0.8739246105453585
3.78E9                   0.015769071172113413     0.87395354637545
3.81E9                   0.09103679897668188      0.8674513536337752
3.84E9                   0.16532562187996191      0.8544923952867178
3.87E9                   0.23808467298863667      0.8351988710888634
3.9E9                    0.3087770670366631       0.8097396315447087
3.93E9                   0.37688381085224987      0.7783286535812972
3.96E9                   0.4419075521587587       0.7412231919690705
3.99E9                   0.5033761392355995       0.6987216234712307
4.02E9                   0.560845965953316        0.6511610035836464
4.05E9                   0.6139050790509156       0.598914358535877
4.08E9                   0.6621760278450985       0.5423877373402247
4.11E9                   0.7053184401791711       0.4820170498047139
4.14E9                   0.7430313118146462       0.4182647165154107
4.17E9                   0.7750549991525976       0.35161615603968704
4.2E9                    0.8011729068546263       0.28257613354975925
4.23E9                   0.8212128626259265       0.21166499460976793
4.26E9                   0.8350481719607061       0.13941480829423358
4.29E9                   0.8425983466472297       0.06636544485957817
4.32E9                   0.8438295026943916       -0.006939385387958324
4.35E9                   0.8387544259920322       -0.07995610477095197
4.38E9                   0.827432306779204        -0.15214522522281815
4.41E9                   0.8099681463652569       -0.22297526324920147
4.44E9                   0.7865118410981886       -0.29192658767917185
4.47E9                   0.7572569496223871       -0.35849517552355437
4.5E9                    0.722439150343633        -0.4221962515179947
4.53E9                   0.6823343974483127       -0.48256778626830565
4.56E9                   0.6372567857914042       -0.5391738276019821
4.59E9                   0.5875561378092383       -0.5916076393401122
4.62E9                   0.5336153286267059       -0.6394946224767408
4.65E9                   0.4758473688571666       -0.6824949948790908
4.68E9                   0.4146922674362781       -0.7203062079067526
4.71E9                   0.35061369935446224      -0.7526650809684224
4.74E9                   0.28409550473238915      -0.7793496382646428
4.77E9                   0.2156380467580215       -0.8001806350248977
4.8E9                    0.14575445612722202      -0.8150227635383547
4.83E9                   0.07496678964591581      -0.8237855315999618
4.86E9                   0.0038021303587310487    -0.8264238079099308
4.89E9                   -0.06721134317857107     -0.8229380304769782
4.92E9                   -0.13754829036055263     -0.8133740756682715
4.95E9                   -0.20669011585142424     -0.7978227874711304
4.98E9                   -0.2741288211491254      -0.7764191689229135
5.01E9                   -0.3393707701990419      -0.7493412405212546
5.04E9                   -0.40194033909623184     -0.7168085735099757
5.07E9                   -0.46138342020434603     -0.6790805092010499
5.1E9                    -0.5172707521573174      -0.6364540787371996
5.13E9                   -0.5692010488049004      -0.5892616408359553
5.16E9                   -0.6168039022888225      -0.5378682579743828
5.19E9                   -0.6597424381080302      -0.48266883398603233
5.22E9                   -0.6977157032121656      -0.42408503771404765
5.25E9                   -0.7304607711557609      -0.3625620382794062
5.28E9                   -0.7577545509108461      -0.29856507776824803
5.31E9                   -0.7794152878174281      -0.23257590710029757
5.34E9                   -0.7953037463244388      -0.16508911131364665
5.37E9                   -0.8053240653888667      -0.09660835169040431
5.4E9                    -0.809424279206552       -0.027642553793719018
5.43E9                   -0.8075964986425928      0.04129792759558936
5.46E9                   -0.799876752338572       0.1097051345585754
5.49E9                   -0.7863444904799887      0.17707729062586502
5.52E9                   -0.7671217582931047      0.24292251199203838
5.55E9                   -0.7423720501677629      0.30676241490749706
5.58E9                   -0.7122988586846708      0.36813559097848236
5.61E9                   -0.6771439356261804      0.42660092477927486
5.64E9                   -0.6371852840078059      0.48174073143679674
5.67E9                   -0.5927349010267734      0.5331636951107912
5.7E9                    -0.5441362915967638      0.5805075920111679
5.73E9                   -0.4917617711775144      0.623441783209382
5.76E9                   -0.43600957613879765     0.6616694624079972
5.79E9                   -0.3773008007251548      0.6949296430635495
5.82E9                   -0.31607618268336196     0.7229988687417019
5.85E9                   -0.252792763507747       0.7456926322290681
5.88E9                   -0.1879204529182264      0.7628664927788981
5.91E9                   -0.12193852854561538     0.7744168864160197
5.94E9                   -0.055332100847013344    0.7802816295208652
5.97E9                   0.011411429344736846     0.7804401197765025
6.0E9                    0.07780589639023638      0.7749132405899085
