% Model:              three_layers reality at 0.1mm.mph
% Version:            COMSOL 5.6.0.280
% Date:               Apr 19 2022, 19:58
% Table:              表格 1 - 全局计算 1
% freq (Hz)              real(emw.S11) (1)        imag(emw.S11) (1)
300000000                0.6224734006494874       -0.7610674669888412
330000000                0.5530241384972271       -0.8131294412045382
360000000                0.4792858261317838       -0.8588625531374234
390000000                0.4018334679569012       -0.8979157601087859
420000000                0.3212708009280014       -0.9299899427915879
450000000                0.23822561514178117      -0.9548403228211497
480000000                0.15334486283768634      -0.9722784431355755
510000000                0.06728959860666794      -0.9821736968809316
540000000                -0.019270204872004017    -0.9844543930075972
570000000                -0.10566092334644495     -0.9791083503676824
600000000                -0.19121058517821404     -0.966183015166989
630000000                -0.27525417165716154     -0.9457851000999936
660000000                -0.3571388677867313      -0.9180797472775638
690000000                -0.43622922204451736     -0.8832892205726145
720000000                -0.5119121713569926      -0.8416911371429011
750000000                -0.583601889899828       -0.7936162515751435
780000000                -0.6507444212260496      -0.7394458098767314
810000000                -0.7128220544626079      -0.6796084946129519
840000000                -0.7693574080899704      -0.6145769856088433
870000000                -0.8199171862940653      -0.5448641647649887
900000000                -0.8641155764744177      -0.4710189960626936
930000000                -0.9016172588851943      -0.3936221154231503
960000000                -0.9321400031549892      -0.31328116735906514
990000000                -0.9554568299356085      -0.2306259277906011
1020000000               -0.9713977197405207      -0.14630325457416607
1050000000               -0.9798508552998095      -0.060971908375866746
1080000000               -0.9807633877752926      0.024702711872895324
1110000000               -0.9741417216153588      0.11005387442512014
1140000000               -0.9600513171269178      0.19441881595603908
1170000000               -0.9386160141961977      0.27714399413857305
1200000000               -0.9100168849469189      0.35759024712529686
1230000000               -0.8744906271227084      0.43513781761255993
1260000000               -0.8323275142765699      0.5091911994154871
1290000000               -0.7838689223430607      0.5791837676325144
1320000000               -0.729504456075596       0.644582154776191
1350000000               -0.6696687018229067      0.7048903385645572
1380000000               -0.6048376362858652      0.7596534095538445
1410000000               -0.5355247235196988      0.8084609900674196
1440000000               -0.46227673460301894     0.8509502793437858
1470000000               -0.3856693265157978      0.8868087031718492
1500000000               -0.30630241803631897     0.9157761501332425
1530000000               -0.22479540191569286     0.9376467801073967
1560000000               -0.1417822330904988      0.9522703946249156
1590000000               -0.0579064332295495      0.9595533623169112
1620000000               0.026183948013636993     0.9594590964505857
1650000000               0.10984137515951993      0.9520080851986565
1680000000               0.19242383296903862      0.9372774787924399
1710000000               0.27329975806049517      0.9154002411234992
1740000000               0.35185285878155387      0.8865638765912744
1770000000               0.4274867876306052       0.8510087460290404
1800000000               0.49962963198368815      0.8090259884702364
1830000000               0.5677381911038021       0.7609550680684594
1860000000               0.6313020090670687       0.7071809680922758
1890000000               0.6898471359123435       0.6481310559040594
1920000000               0.7429395911337299       0.5842716451727352
1950000000               0.7901885066075093       0.5161042829971143
1980000000               0.8312489281799437       0.4441617914884384
2010000000               0.8658242579955925       0.3690040945052737
2040000000               0.8936683221858819       0.2912138615097847
2070000000               0.9145870513145475       0.2113920013670748
2100000000               0.9284397637026622       0.1301530396588996
2130000000               0.9351400445304798       0.04812041356267033
2.16E9                   0.9346562163840861       -0.03407828120037231
2.19E9                   0.9270113997541358       -0.11581605696873778
2.22E9                   0.9122831647413439       -0.19647127986630145
2.25E9                   0.8906027780351913       -0.27543236055212955
2.28E9                   0.8621540519378489       -0.35210235666579914
2.31E9                   0.8271718048437204       -0.4259034543486969
2.34E9                   0.7859399450898039       -0.49628129734862103
2.37E9                   0.7387891921431198       -0.5627091338527964
2.4E9                    0.6860944509421558       -0.6246917523227412
2.43E9                   0.6282718561520743       -0.6817691792630589
2.46E9                   0.5657755036571132       -0.7335201122356984
2.49E9                   0.4990938871773738       -0.7795650604288806
2.52E9                   0.42874605978756364      -0.8195691622139878
2.55E9                   0.35527754634084663      -0.8532446448148164
2.58E9                   0.2792560445916498       -0.8803528899187264
2.61E9                   0.20126696913425912      -0.9007060763682934
2.64E9                   0.12190890352216233      -0.9141683917823228
2.67E9                   0.04178902026153075      -0.9206568327439201
2.7E9                    -0.03848149787332318     -0.9201416306746302
2.73E9                   -0.11829203306521913     -0.9126463320920662
2.76E9                   -0.1970371148114598      -0.8982475325745531
2.79E9                   -0.2741210048762202      -0.877074236967696
2.82E9                   -0.34896225172174367     -0.8493068134901925
2.85E9                   -0.4209981603709463      -0.8151755251981984
2.88E9                   -0.48968911935348713     -0.7749586441393417
2.91E9                   -0.5545227336983651      -0.7289801696036484
2.94E9                   -0.6150177234558951      -0.677607179404693
2.97E9                   -0.6707275560588329      -0.6212468446443379
3.0E9                    -0.7212437859194862      -0.5603431382300721
3.03E9                   -0.7661990780364443      -0.49537326703162227
3.06E9                   -0.8052698945330786      -0.4268438581078849
3.09E9                   -0.8381788251822455      -0.35528693055343796
3.12E9                   -0.8646965453567481      -0.28125568599870254
3.15E9                   -0.8846433876758136      -0.20532015204342358
3.18E9                   -0.8978905165622225      -0.12806271441752892
3.21E9                   -0.9043606983879121      -0.05007357425981014
3.24E9                   -0.9040286632446396      0.028053832422043425
3.27E9                   -0.8969210579127825      0.10572741588269366
3.3E9                    -0.8831159931101109      0.18236097752831565
3.33E9                   -0.8627421915223406      0.2573786821548429
3.36E9                   -0.8359777464434001      0.3302194222669673
3.39E9                   -0.8030485040227244      0.40034104036426604
3.42E9                   -0.7642260851720892      0.4672243765929981
3.45E9                   -0.7198255659636476      0.5303771111314001
3.48E9                   -0.6702028379811646      0.589337372645769
3.51E9                   -0.6157516725262138      0.6436770864078973
3.54E9                   -0.5569005146682032      0.6930050382534356
3.57E9                   -0.49410903499217523     0.7369696332200535
3.6E9                    -0.4278644685921784      0.7752613304292757
3.63E9                   -0.35867777199298145     0.8076147388881232
3.66E9                   -0.2870796297051292      0.8338103618098499
3.69E9                   -0.2136163427168387      0.8536759801472663
3.72E9                   -0.13884563143961462     0.8670876690625765
3.75E9                   -0.06333238549606701     0.8739704439675748
3.78E9                   0.012355607459976704     0.8742985354525583
3.81E9                   0.08765192234931228      0.8680952950031682
3.84E9                   0.16199571560760334      0.8554327357182503
3.87E9                   0.23483587188641497      0.8364307145640861
3.9E9                    0.30563504863801116      0.8112557649932356
3.93E9                   0.37387358919162         0.7801195912045527
3.96E9                   0.43905327573190434      0.7432772380192709
3.99E9                   0.5007008948928385       0.7010249531723054
4.02E9                   0.558371590415392        0.6536977617443704
4.05E9                   0.6116519797944027       0.6016667751806356
4.08E9                   0.6601630150673454       0.5453362594264478
4.11E9                   0.7035625714440918       0.48514048782364005
4.14E9                   0.741547750745917        0.42154040459685405
4.17E9                   0.7738568893406218       0.35502012399268307
4.2E9                    0.8002712618649674       0.28608328921964304
4.23E9                   0.8206164727800289       0.21524931497426836
4.26E9                   0.8347635284092569       0.14304953771390766
4.29E9                   0.8426295831436292       0.07002329895986296
4.32E9                   0.8441783553779033       -0.0032860117699041094
4.35E9                   0.8394202113721001       -0.07633492706103528
4.38E9                   0.8284119179906249       -0.1485838576514172
4.41E9                   0.8112560675908          -0.21950100796216596
4.44E9                   0.788100179921359        -0.28856622590739067
4.47E9                   0.7591354869606616       -0.3552747622158272
4.5E9                    0.7245954075786305       -0.4191409147108483
4.53E9                   0.6847537203141375       -0.4797015324759942
4.56E9                   0.6399224446301262       -0.5365193543966917
4.59E9                   0.5904494437088419       -0.5891861564518339
4.62E9                   0.5367157649622591       -0.6373256826595854
4.65E9                   0.47913273757469615      -0.6805963359677496
4.68E9                   0.4181388492923457       -0.7186936074393029
4.71E9                   0.3541964270947059       -0.75135222478632
4.74E9                   0.2877881480226158       -0.7783480043799497
4.77E9                   0.21941340741887638      -0.7994993939619726
4.8E9                    0.14958457215259244      -0.8146686961183621
4.83E9                   0.07882314630621377      -0.8237629649719326
4.86E9                   0.007655876711865695     -0.8267345704011098
4.89E9                   -0.06338917408801788     -0.8235814256661261
4.92E9                   -0.13378655930962235     -0.8143468759404797
4.95E9                   -0.20301735493216366     -0.7991192471857769
4.98E9                   -0.2705730126231222      -0.7780310572267212
5.01E9                   -0.3359591284364514      -0.7512578937202115
5.04E9                   -0.3986990973119694      -0.7190169667957558
5.07E9                   -0.4583376237461478      -0.6815653473781529
5.1E9                    -0.5144440601387337      -0.6391979054152719
5.13E9                   -0.5666155458161771      -0.5922449653813336
5.16E9                   -0.6144799219346799      -0.5410696992665759
5.19E9                   -0.6576983999884212      -0.4860652798300786
5.22E9                   -0.6959679648343922      -0.4276518185185248
5.25E9                   -0.7290234960458846      -0.3662731134729173
5.28E9                   -0.7566395939842439      -0.3023932332888597
5.31E9                   -0.7786320988188328      -0.23649296229088812
5.34E9                   -0.7948592919985661      -0.16906613354342193
5.37E9                   -0.805222770894329       -0.10061587708637498
5.4E9                    -0.8096679892318916      -0.031650812422993245
5.43E9                   -0.8081844586002522      0.037318783743401356
5.46E9                   -0.8008056099285732      0.10578480258661711
5.49E9                   -0.7876083177737025      0.17324508854627352
5.52E9                   -0.7687120943063729      0.23920715333147147
5.55E9                   -0.7442779636562362      0.3031917880780777
5.58E9                   -0.7145070306246751      0.36473654541990236
5.61E9                   -0.6796387605606224      0.4233990658205953
5.64E9                   -0.6399489891675998      0.4787602256583148
5.67E9                   -0.5957476818982118      0.5304270877890731
5.7E9                    -0.5473764624786631      0.5780356379394225
5.73E9                   -0.49520592925155915     0.6212532918946697
5.76E9                   -0.43963277763627007     0.6597811584596398
5.79E9                   -0.3810767479092272      0.6933560424678693
5.82E9                   -0.31997742040698096     0.7217521717493999
5.85E9                   -0.2567908840778035      0.7447826336330318
5.88E9                   -0.19198630779508435     0.762300510384136
5.91E9                   -0.12604244521850544     0.7741997083771747
5.94E9                   -0.059444103027232846    0.7804154809995144
5.97E9                   0.007321400143448998     0.7809246490605171
6.0E9                    0.07376775977976884      0.7757455245075102
