% Model:              three_layers reality at 0.1mm.mph
% Version:            COMSOL 5.6.0.280
% Date:               Mar 11 2022, 15:52
% Table:              表格 1 - 全局计算 1
% freq (Hz)              real(emw.S11) (1)        imag(emw.S11) (1)
300000000                0.5543885545263619       -0.7469992745415004
330000000                0.4837091625055502       -0.7929501821523998
360000000                0.40938137309288136      -0.8323544409534842
390000000                0.3319821084549133       -0.8649188476969359
420000000                0.2521176731268895       -0.8904001350253777
450000000                0.17041812418494828      -0.9086084086631327
480000000                0.08753162265018376      -0.9194097969527331
510000000                0.004118741505978818     -0.922728411529222
540000000                -0.07915326718627186     -0.9185476743681568
570000000                -0.16161623153556715     -0.9069110423267941
600000000                -0.2426068201822913      -0.8879221472746797
630000000                -0.3214722671669976      -0.8617443640062696
660000000                -0.3975760229200221      -0.8285998152721842
690000000                -0.4703032863972658      -0.7887678243535762
720000000                -0.5390663702029217      -0.7425828288114671
750000000                -0.603309851517261       -0.6904317710583597
780000000                -0.662515458268075       -0.6327509881697454
810000000                -0.7162066427542728      -0.5700226262248709
840000000                -0.7639527953906674      -0.5027706113802239
870000000                -0.8053730541307424      -0.43155621405900857
900000000                -0.8401396685776625      -0.3569732483049386
930000000                -0.8679808818631334      -0.2796429527848829
960000000                -0.8886832985608433      -0.20020860437588903
990000000                -0.9020937123642541      -0.11932991854460916
1020000000               -0.9081203733480537      -0.037677294544435594
1050000000               -0.9067336816035646      0.04407403568751772
1080000000               -0.8979663003995801      0.1252498936170149
1110000000               -0.8819126893247211      0.20518301449642853
1140000000               -0.8587280649964847      0.28321882061259124
1170000000               -0.8286268032990526      0.3587210493501403
1200000000               -0.7918803044489137      0.4310771781327012
1230000000               -0.7488143475348216      0.4997035936459671
1260000000               -0.6998059678540541      0.5640504545700606
1290000000               -0.6452798941616106      0.623606203801359
1320000000               -0.5857045889546968      0.6779016888613375
1350000000               -0.5215879366282435      0.7265138571299025
1380000000               -0.4534726290519429      0.7690689962348715
1410000000               -0.381931298511806       0.8052454975748928
1440000000               -0.3075614502840573      0.8347761259680399
1470000000               -0.23098024691606575     0.8574497849320537
1500000000               -0.15281919613343417     0.8731127727660777
1530000000               -0.07371879355821243     0.8816695301628705
1560000000               0.0056768310231909425    0.8830828853836924
1590000000               0.08472521615033397      0.8773738076799327
1620000000               0.1627907757715871       0.8646206840517974
1650000000               0.23924986922930902      0.8449581382605884
1680000000               0.31349569591739623      0.8185754142252629
1710000000               0.3849429795842273       0.7857143488539835
1740000000               0.45303241121214183      0.7466669613145651
1770000000               0.5172348222563745       0.7017726879194504
1800000000               0.5770550640616884       0.6514152927973291
1830000000               0.6320355726683253       0.5960194853934205
1860000000               0.681759601006516        0.5360472766651322
1890000000               0.7258541040040645       0.471994105723687
1920000000               0.7639922648031476       0.4043847687844376
1950000000               0.7958956529570114       0.3337691819138485
1980000000               0.8213360077798214       0.26071800898504244
2010000000               0.8401366425608559       0.1858181851191218
2040000000               0.8521734670233454       0.10966836594946537
2070000000               0.8573756275406641       0.03287433199307711
2100000000               0.8557257662561316       -0.04395562296424103
2130000000               0.8472599019409629       -0.12021529143476697
2.16E9                   0.8320669369866501       -0.19530511233702672
2.19E9                   0.8102877965145648       -0.26863666455015484
2.22E9                   0.7821142070392654       -0.3396370685419019
2.25E9                   0.7477871236226833       -0.4077532707218858
2.28E9                   0.7075948156057298       -0.47245618731501726
2.31E9                   0.6618706218074725       -0.5332446857479114
2.34E9                   0.6109903859078056       -0.5896493837551063
2.37E9                   0.555369581196142        -0.6412362481081799
2.4E9                    0.4954601296630312       -0.6876099759179277
2.43E9                   0.43174691472940413      -0.7284171382988973
2.46E9                   0.3647439786170587       -0.763349057779377
2.49E9                   0.294990392744997        -0.7921443706356257
2.52E9                   0.22304579985445586      -0.8145911958659454
2.55E9                   0.14948566575459132      -0.8305288023330354
2.58E9                   0.07489635029761299      -0.839848662544582
2.61E9                   -1.298097009913235E-4    -0.8424948404177208
2.64E9                   -0.07499918344012783     -0.838463791639917
2.67E9                   -0.149121159073178       -0.8278037989081284
2.7E9                    -0.22191214353085442     -0.8106143066565349
2.73E9                   -0.29279948142205753     -0.7870452930942871
2.76E9                   -0.36122554522926154     -0.7572965956369648
2.79E9                   -0.4266521003508461      -0.7216169515632775
2.82E9                   -0.4885648557947089      -0.6803025219019665
2.85E9                   -0.5464780021933835      -0.6336947870472497
2.88E9                   -0.5999385411176945      -0.582177831838777
2.91E9                   -0.648530273469001       -0.5261751102096103
2.94E9                   -0.6918773813434536      -0.46614579339161716
2.97E9                   -0.7296475796316806      -0.40258078926930496
3.0E9                    -0.7615548311749587      -0.3359984985881655
3.03E9                   -0.787361622895592       -0.26694035730160487
3.06E9                   -0.806880797820611       -0.19596620711940016
3.09E9                   -0.8199769363374657      -0.12364953356692854
3.12E9                   -0.8265672795877892      -0.05057261192228351
3.15E9                   -0.8266221897581545      0.022678396671294537
3.18E9                   -0.8201651454439092      0.0955183552555478
3.21E9                   -0.8072722745188288      0.1673680224901849
3.24E9                   -0.7880714317569901      0.23765884063223608
3.27E9                   -0.762740833269333       0.305837596307871
3.3E9                    -0.7315072645551333      0.37137091157259344
3.33E9                   -0.6946438832459325      0.43374952538103506
3.36E9                   -0.6524676415992507      0.49249232813345056
3.39E9                   -0.605336357378985       0.5471501150323969
3.42E9                   -0.5536454647955601      0.5973090276302729
3.45E9                   -0.49782447993668266     0.6425936564967393
3.48E9                   -0.43833321737734343     0.6826697819391736
3.51E9                   -0.37565779646956354     0.7172467338881798
3.54E9                   -0.3103064772617814      0.7460793563150462
3.57E9                   -0.2428053666761695      0.768969566167515
3.6E9                    -0.17369403597088198     0.7857675012856946
3.63E9                   -0.10352109022046196     0.7963722563597706
3.66E9                   -0.032839729019583784    0.8007322106105378
3.69E9                   0.03779666363088641      0.798844954764929
3.72E9                   0.1078388654496397       0.7907568285530818
3.75E9                   0.17674606559824754      0.7765620824005293
3.78E9                   0.2439899887502726       0.7564016786207373
3.81E9                   0.3090588663233014       0.7304617481255852
3.84E9                   0.3714612291764969       0.6989717190289009
3.87E9                   0.43072949626312024      0.6622021341106085
3.9E9                    0.48642333339659705      0.6204621756269785
3.93E9                   0.538132755519966        0.5740969190131858
3.96E9                   0.5854809464044243       0.5234843415173983
3.99E9                   0.6281267716239338       0.46903211780673787
4.02E9                   0.6657669659977863       0.4111742404071036
4.05E9                   0.6981379848236078       0.35036750719611254
4.08E9                   0.7250175186158352       0.2870879189259902
4.11E9                   0.7462256815740997       0.2218270255136716
4.14E9                   0.7616258912934953       0.15508825117107194
4.17E9                   0.7711254591060233       0.08738321755058595
4.2E9                    0.7746759063567552       0.01922807469534571
4.23E9                   0.7722730140606431       -0.04886015458653034
4.26E9                   0.7639566059729088       -0.11636720978500609
4.29E9                   0.7498100616590417       -0.18278519435972107
4.32E9                   0.7299595578432939       -0.24761612569175
4.35E9                   0.7045730411818145       -0.310375412777963
4.38E9                   0.6738589401234123       -0.370595243083925
4.41E9                   0.638064624594459        -0.42782786454517496
4.44E9                   0.5974746195121726       -0.4816487518616347
4.47E9                   0.5524085732420696       -0.5316596462386428
4.5E9                    0.5032189784610058       -0.577491453117828
4.53E9                   0.45028864263981777      -0.6188069757085728
4.56E9                   0.3940279094418454       -0.6553034553384391
4.59E9                   0.3348716399656191       -0.6867148852478926
4.62E9                   0.27327597176587587      -0.7128140639465075
4.65E9                   0.20971488252265474      -0.7334143572895802
4.68E9                   0.1446765919704811       -0.7483711448112986
4.71E9                   0.07865983960477543      -0.7575829339208877
4.74E9                   0.012170076136345643     -0.7609921340643226
4.77E9                   -0.05428439617493624     -0.7585854901297533
4.8E9                    -0.12019630396390113     -0.7503941787725682
4.83E9                   -0.18506327874879408     -0.7364935723580568
4.86E9                   -0.24839170651222828     -0.7170026734218401
4.89E9                   -0.30970052922954516     -0.6920832196491482
4.92E9                   -0.3685249740640224      -0.6619384573904155
4.95E9                   -0.4244201816681448      -0.6268115821315923
4.98E9                   -0.47696470070261143     -0.586983847458459
5.01E9                   -0.5257638126289065      -0.5427723493206579
5.04E9                   -0.5704526498276881      -0.4945274987577093
5.07E9                   -0.6106990707705752      -0.44263020307001383
5.1E9                    -0.6462062587510458      -0.38748878195503433
5.13E9                   -0.6767150151877415      -0.3295356511066763
5.16E9                   -0.702005724908974       -0.26922381037337784
5.19E9                   -0.7218999786361168      -0.20702317595910388
5.22E9                   -0.7362618460134606      -0.14341679496270496
5.25E9                   -0.7449987984982166      -0.07889697660266613
5.28E9                   -0.748062283902927       -0.01396136832779357
5.31E9                   -0.7454479522986107      0.05089099912085977
5.34E9                   -0.7371955288214213      0.11516367438987936
5.37E9                   -0.7233883256025797      0.17836672813694823
5.4E9                    -0.7041523858373293      0.24002064072958362
5.43E9                   -0.6796552586966558      0.2996600932443939
5.46E9                   -0.6501044130792737      0.35683761634603434
5.49E9                   -0.6157453087290041      0.41112705203353433
5.52E9                   -0.5768591528580816      0.46212678771942567
5.55E9                   -0.5337603780231346      0.5094627292290366
5.58E9                   -0.486793881960075       0.5527909885032198
5.61E9                   -0.436332071869416       0.5918002721829805
5.64E9                   -0.38277175347484915     0.6262139678399409
5.67E9                   -0.32653089842182176     0.6557919334497646
5.7E9                    -0.26804531320223174     0.680331999709922
5.73E9                   -0.20776522198946934     0.6996711917313942
5.76E9                   -0.14615176999628154     0.7136866665553783
5.79E9                   -0.0836734574618756      0.7222963507935549
5.82E9                   -0.020802527349059297    0.7254592557233382
5.85E9                   0.04198865379012062      0.7231754513195305
5.88E9                   0.10423117151092534      0.7154856957123844
5.91E9                   0.16546304566894962      0.7024707356965977
5.94E9                   0.2252325801855765       0.6842503089215418
5.97E9                   0.2831015574531742       0.6609818840713584
6.0E9                    0.3386482686704179       0.6328591720104801
