% Model:              three_layers reality at 0.1mm.mph
% Version:            COMSOL 5.6.0.280
% Date:               Mar 1 2022, 21:12
% Table:              表格 1 - 全局计算 1
% freq (Hz)              real(emw.S11) (1)        imag(emw.S11) (1)
300000000                0.5076932571092663       -0.8383423555736176
330000000                0.4191653146020654       -0.8851194786135722
360000000                0.3264401927138815       -0.9225281198423331
390000000                0.23051313790214698      -0.9502046183439691
420000000                0.13240949451744477      -0.9678918421079601
450000000                0.033173060367030695     -0.9754414805643352
480000000                -0.06614566148281682     -0.9728150178535583
510000000                -0.16450117222531607     -0.9600834060313471
540000000                -0.2608645083005145      -0.9374254674189575
570000000                -0.35423445919686963     -0.9051250674520473
600000000                -0.44364834320643337     -0.8635671119772287
630000000                -0.5281922196711507      -0.8132324355396316
660000000                -0.6070104251483507      -0.7546916592756316
690000000                -0.6793143319226719      -0.6885981075832515
720000000                -0.7443902376635121      -0.6156798830838925
750000000                -0.8016063086479236      -0.5367312070707391
780000000                -0.8504185114490843      -0.45260313987365974
810000000                -0.8903754821971468      -0.36419380048417926
840000000                -0.9211222966164385      -0.2724382081918429
870000000                -0.9424031182146669      -0.17829787096999153
900000000                -0.9540627163527005      -0.08275024519419195
930000000                -0.9560468597345987      0.013221810251476375
960000000                -0.9484016042438331      0.10864046527543339
990000000                -0.9312715068703441      0.20254311998475255
1020000000               -0.9048968093215013      0.293992266587086
1050000000               -0.8696096459139437      0.38208490923090843
1080000000               -0.825829340160709       0.4659614476373357
1110000000               -0.7740568632709         0.544813939005319
1140000000               -0.7148685351114795      0.6178936629049535
1170000000               -0.6489090544805296      0.6845179238077805
1200000000               -0.5768839503444777      0.7440760368386626
1230000000               -0.4995515492650621      0.7960344532089908
1260000000               -0.41771455647202854     0.8399409928248055
1290000000               -0.3322113491693376      0.8754281624041031
1320000000               -0.24390708031397434     0.902215548278057
1350000000               -0.15368468993727546     0.9201112832934574
1380000000               -0.06243591863830052     0.9290125972031776
1410000000               0.028947585358450392     0.9289054692478464
1440000000               0.11958297846403206      0.9198634103834769
1470000000               0.208604671007393        0.9020454105968199
1500000000               0.2951724368756983       0.8756930940493476
1530000000               0.37847911301509873      0.8411271312601463
1560000000               0.45775782477610394      0.7987429632445597
1590000000               0.5322886801306448       0.7490058973845389
1620000000               0.6014048829472224       0.6924456388509684
1650000000               0.6644982228191506       0.629650324733635
1680000000               0.7210239065999272       0.5612601303972741
1710000000               0.7705047041437333       0.4879605194592557
1740000000               0.8125343884696208       0.4104752096406644
1770000000               0.8467804579605783       0.3295589271729564
1800000000               0.8729861358033801       0.2459900218944413
1830000000               0.8909716492464149       0.1605630142179632
1860000000               0.9006347988128174       0.0740811430841706
1890000000               0.9019508350525993       -0.012651018562388636
1920000000               0.8949716680879096       -0.09883481828032585
1950000000               0.879824442867021        -0.1836845914754139
1980000000               0.8567095206888429       -0.26643449202112657
2010000000               0.825897914549055        -0.34634504751006306
2040000000               0.7877282309894125       -0.4227094158373441
2070000000               0.7426031714523393       -0.4948593416305679
2100000000               0.6909856363637442       -0.5621708398968329
2130000000               0.6333944457171747       -0.624069668834461
2.16E9                   0.5703996269847592       -0.6800366843876783
2.19E9                   0.5026171103243062       -0.7296131700130905
2.22E9                   0.4307025120706593       -0.7724061540852504
2.25E9                   0.35534353061967416      -0.8080934857839811
2.28E9                   0.2772504768624744       -0.8364279789437797
2.31E9                   0.19714488363171798      -0.8572393437197786
2.34E9                   0.11574720582806126      -0.8704323352344834
2.37E9                   0.033766060672029495     -0.8759802886265489
2.4E9                    -0.04810788384050842     -0.8739153498244054
2.43E9                   -0.12920177376923353     -0.864319190599402
2.46E9                   -0.20885604456477527     -0.8473184818256989
2.49E9                   -0.28642013552072526     -0.8230867072530224
2.52E9                   -0.36125259644770136     -0.7918500060634012
2.55E9                   -0.4327265926068924      -0.7538928787390381
2.58E9                   -0.5002388918797201      -0.7095607056653569
2.61E9                   -0.5632195825879289      -0.659258362092846
2.64E9                   -0.6211406063597054      -0.6034458471533406
2.67E9                   -0.6735224015709247      -0.5426322676679762
2.7E9                    -0.7199387523531402      -0.4773692110214378
2.73E9                   -0.7600202332047676      -0.4082440749814623
2.76E9                   -0.7934566333368972      -0.3358735756885305
2.79E9                   -0.8199986344094837      -0.2608974713084014
2.82E9                   -0.8394589036676584      -0.1839724698994982
2.85E9                   -0.8517126850642136      -0.10576628050778901
2.88E9                   -0.8566979240845966      -0.026951780179989206
2.91E9                   -0.8544149384451212      0.05179871174316513
2.94E9                   -0.8449256375803215      0.12981904425398383
2.97E9                   -0.8283522924957248      0.20645471028544257
3.0E9                    -0.80487586028744        0.28106815913439603
3.03E9                   -0.7747338722788364      0.35304391279918446
3.06E9                   -0.738217900141839       0.4217934510951084
3.09E9                   -0.6956706198816374      0.48675983047237426
3.12E9                   -0.6474824987144088      0.5474220032403377
3.15E9                   -0.5940881341230145      0.6032988073177408
3.18E9                   -0.5359622773367382      0.6539526011105466
3.21E9                   -0.47361557455127407     0.6989925232655648
3.24E9                   -0.4075900582692076      0.738077361773311
3.27E9                   -0.3384544183048166      0.7709180202623145
3.3E9                    -0.2667990779552338      0.7972795702627753
3.33E9                   -0.19323109705707378     0.8169828759417174
3.36E9                   -0.11836892155717305     0.829905772356902
3.39E9                   -0.0428370010155998      0.8359837702283754
3.42E9                   0.032739697574118765     0.8352102513608877
3.45E9                   0.10774123780823715      0.8276361116679172
3.48E9                   0.18155826234201095      0.8133688066756131
3.51E9                   0.25359745642083614      0.7925707611174534
3.54E9                   0.32328681703153905      0.7654571228283519
3.57E9                   0.39008060017208734      0.7322928724622617
3.6E9                    0.45346381364324806      0.6933893417437906
3.63E9                   0.5129561356045464       0.6491002370781933
3.66E9                   0.5681151701798577       0.5998173029973443
3.69E9                   0.6185389953339921       0.5459657831042332
3.72E9                   0.6638680064016089       0.48799984188786516
3.75E9                   0.7037861038604686       0.42639810194241146
3.78E9                   0.7380213145901675       0.3616594325157301
3.81E9                   0.7663459744264185       0.2942990979560981
3.84E9                   0.7885766367784233       0.22484533294217887
3.87E9                   0.8045738988747968       0.15383634820651554
3.9E9                    0.8142423364341238       0.08181768684043877
3.93E9                   0.8175306923594587       0.009339764080246123
3.96E9                   0.8144323729551926       -0.06304463804917144
3.99E9                   0.8049861854232102       -0.13478315759497414
4.02E9                   0.7892771385878131       -0.20532710088705178
4.05E9                   0.7674370607505445       -0.2741352251930981
4.08E9                   0.7396447838326211       -0.34067800512245355
4.11E9                   0.7061256980076966       -0.404442227136528
4.14E9                   0.6671505736774723       -0.46493569635192333
4.17E9                   0.6230336486605101       -0.5216918320502967
4.2E9                    0.5741300620823558       -0.5742739653044849
4.23E9                   0.5208327667489933       -0.6222792161604925
4.26E9                   0.46356906408950516      -0.6653418983782688
4.29E9                   0.40279688548476944      -0.7031364584463059
4.32E9                   0.33900090371765795      -0.7353799902644105
4.35E9                   0.2726885142142734       -0.7618343739677702
4.38E9                   0.20438569194270198      -0.782308071796769
4.41E9                   0.1346327143742835       -0.7966575866365316
4.44E9                   0.06397974463149084      -0.8047885617931101
4.47E9                   -0.007017713672499682    -0.8066564827690517
4.5E9                    -0.07780345490800898     -0.8022669370150477
4.53E9                   -0.14782524583660966     -0.7916753954285858
4.56E9                   -0.21653946191197662     -0.7749864968824325
4.59E9                   -0.2834156036543405      -0.7523528408901221
4.62E9                   -0.3479406142782884      -0.7239733198087089
4.65E9                   -0.4096229347940484      -0.6900910458750992
4.68E9                   -0.4679962588197575      -0.6509909434901253
4.71E9                   -0.5226229810417935      -0.6069970771887893
4.74E9                   -0.573097361022949       -0.5584697677167211
4.77E9                   -0.6190484365290322      -0.505802516620758
4.8E9                    -0.6601427102478293      -0.44941872554905693
4.83E9                   -0.6960866027341157      -0.3897681750413605
4.86E9                   -0.7266286240871404      -0.327323230188706
4.89E9                   -0.7515611836328939      -0.26257476861483403
4.92E9                   -0.7707219443349378      -0.19602787107050404
4.95E9                   -0.7839946423703767      -0.12819736239951465
4.98E9                   -0.791309329553847       -0.0596033269363678
5.01E9                   -0.7926420486661624      0.009233262470823247
5.04E9                   -0.7880140080292073      0.07779467360252926
5.07E9                   -0.7774903693562065      0.14557021157062175
5.1E9                    -0.7611787887391639      0.21205965194873128
5.13E9                   -0.7392278430856432      0.276776347817756
5.16E9                   -0.7118254289179817      0.3392501061591757
5.19E9                   -0.679197146485779       0.3990299528013153
5.22E9                   -0.641604605052553       0.4556868794179494
5.25E9                   -0.5993435389089007      0.5088165957862275
5.28E9                   -0.5527416333304187      0.5580422246303963
5.31E9                   -0.5021560241670278      0.603016816683758
5.34E9                   -0.44797052320658354     0.6434255611366688
5.37E9                   -0.3905926894750891      0.6789876226545775
5.4E9                    -0.33045088171899056     0.7094576214599992
5.43E9                   -0.2679913860401046      0.734626846166397
5.46E9                   -0.20367563814544118     0.7543243198403844
5.49E9                   -0.13797748526353804     0.7684178212249368
5.52E9                   -0.07138038471801149     0.7768149086716551
5.55E9                   -0.004374425058147935    0.7794639263888631
5.58E9                   0.06254692106090491      0.7763549108280273
5.61E9                   0.12889035467818175      0.7675202720719396
5.64E9                   0.19416659822047055      0.7530351077919479
5.67E9                   0.2578944446757417       0.7330170202668954
5.7E9                    0.31960486123496157      0.7076253528797967
5.73E9                   0.3788449692279725       0.6770598377420147
5.76E9                   0.43518173671546184      0.6415587331710155
5.79E9                   0.4882052849262364       0.6013965971061501
5.82E9                   0.5375318042471463       0.5568818582739535
5.85E9                   0.5828061582933313       0.5083543009874816
5.88E9                   0.6237042873744649       0.4561824951299617
5.91E9                   0.6599354951101859       0.4007611235055342
5.94E9                   0.6912446362553084       0.3425081197022162
5.97E9                   0.7174141559661099       0.28186153940459235
6.0E9                    0.7382658876252404       0.21927613065454798
