% Model:              three_layers reality at 0.1mm.mph
% Version:            COMSOL 5.6.0.280
% Date:               Mar 1 2022, 21:02
% Table:              表格 1 - 全局计算 1
% freq (Hz)              real(emw.S11) (1)        imag(emw.S11) (1)
300000000                0.507263443777414        -0.8379023417339968
330000000                0.41879719751454125      -0.8845885017037562
360000000                0.32615073443422954      -0.9219177187755364
390000000                0.2303165556998913       -0.9495288180279333
420000000                0.13231711547410274      -0.9671665740540581
450000000                0.03319323984643568      -0.974684050558928
480000000                -0.0660075661052014      -0.9720436108958626
510000000                -0.16424277766232154     -0.9593166234723643
540000000                -0.2604863346771757      -0.9366818943629032
570000000                -0.3537398160085199      -0.9044228704604896
600000000                -0.44304317476982        -0.8629236684275903
630000000                -0.5274849138391186      -0.812663996546723
660000000                -0.6062115891008216      -0.7542130483746572
690000000                -0.6784365393186232      -0.6882224573260294
720000000                -0.7434477518257968      -0.6154184114222995
750000000                -0.8006147866339254      -0.5365930350818487
780000000                -0.8493946941900969      -0.45259515177569604
810000000                -0.8893368759094626      -0.36432054635691014
840000000                -0.9200868506272933      -0.2727018493768305
870000000                -0.9413889044053886      -0.17869816728151566
900000000                -0.9530876151226455      -0.08328458267301612
930000000                -0.9551282571786635      0.012558352933013299
960000000                -0.9475561049006145      0.10785501413361576
990000000                -0.9305146660076556      0.20164486968092651
1020000000               -0.9042428882717453      0.2929923142400246
1050000000               -0.8690713934905191      0.3809960617027248
1080000000               -0.8254178026728562      0.464798006142614
1110000000               -0.7737812251004381      0.5435914651312577
1140000000               -0.7147359913092544      0.6166287301629696
1170000000               -0.6489247162556904      0.6832278589870383
1200000000               -0.577050783806464       0.7427786553572822
1230000000               -0.4998703472633743      0.7947477925793323
1260000000               -0.41818394293344086     0.8386830481911235
1290000000               -0.3328278147808103      0.8742166279805768
1320000000               -0.24466504812035322     0.9010675681782546
1350000000               -0.15457660894883285     0.9190432150331449
1380000000               -0.06345238329922402     0.9280397907997213
1410000000               0.027817692340794942     0.9280420645236994
1440000000               0.1183523225584887       0.9191221546932161
1470000000               0.2072872844251089       0.9014374988492838
1500000000               0.2937835222694014       0.8752280324960386
1530000000               0.37703483527771575      0.8408126261649578
1560000000               0.4562750940808826       0.7985848351594361
1590000000               0.5307849292475687       0.7490080213931878
1620000000               0.59989784180814         0.6926099108352484
1650000000               0.663005693301124        0.6299766533285727
1680000000               0.7195635402815231       0.5617464540560659
1710000000               0.7690937856922752       0.48860284774503715
1740000000               0.8111896271353782       0.4112676876150448
1770000000               0.8455177894590697       0.33049392152717755
1800000000               0.8718205366532076       0.24705822730025773
1830000000               0.8899169654255332       0.16175357818454034
1860000000               0.8997035903570428       0.07538180750030486
1890000000               0.9011542379892028       -0.011253761101090332
1920000000               0.8943192748716435       -0.0973555553744794
1950000000               0.8793242022396633       -0.18213881100281215
1980000000               0.8563676576601275       -0.2648383933998301
2010000000               0.8257188709907706       -0.34471534595353404
2040000000               0.7877146271294443       -0.42106314131192585
2070000000               0.7427557885372722       -0.4932136337112587
2100000000               0.6913034209201258       -0.560542739254748
2130000000               0.6338745366377427       -0.6224759052398675
2.16E9                   0.5710374085926845       -0.6784934603772159
2.19E9                   0.5034062982937354       -0.7281359396583399
2.22E9                   0.4316352849557339       -0.7710093997594545
2.25E9                   0.3564107257707443       -0.8067905063522458
2.28E9                   0.27844186850903496      -0.8352307238240858
2.31E9                   0.1984495387593615       -0.8561583548321192
2.34E9                   0.11715385754565162      -0.8694768702221687
2.37E9                   0.03526336466109026      -0.8751586528347381
2.4E9                    -0.04653136974041079     -0.8732353421722323
2.43E9                   -0.12755794579949153     -0.863788436353808
2.46E9                   -0.20715780066373082     -0.8469444201037609
2.49E9                   -0.28468182599528324     -0.8228761777841312
2.52E9                   -0.35949014325039114     -0.7918086062445218
2.55E9                   -0.4309572402210936      -0.7540243531891287
2.58E9                   -0.49848072131573595     -0.7098665503250925
2.61E9                   -0.5614909625916383      -0.6597376826958153
2.64E9                   -0.6194597034535204      -0.6040954144935353
2.67E9                   -0.6719067970785724      -0.5434466853060042
2.7E9                    -0.7184051641093346      -0.4783411276711951
2.73E9                   -0.7585843185704141      -0.40936440176539385
2.76E9                   -0.7921328479486037      -0.33713169099426515
2.79E9                   -0.8188001267232203      -0.2622814093577788
2.82E9                   -0.8383974323062582      -0.1854690952492893
2.85E9                   -0.8507985515880585      -0.10736145252079395
2.88E9                   -0.8559399175871758      -0.028630511303088104
2.91E9                   -0.8538202906214258      0.05005210106255881
2.94E9                   -0.8444999880840657      0.128020772256174
2.97E9                   -0.8280996649052675      0.20462138132420377
3.0E9                    -0.8047986491283151      0.27921661166776046
3.03E9                   -0.7748328414727541      0.35119106823069546
3.06E9                   -0.7384921931065925      0.4199561639992734
3.09E9                   -0.6961177813418621      0.4849547408726691
3.12E9                   -0.648098508152968       0.5456653916225184
3.15E9                   -0.5948674507219635      0.6016064530187493
3.18E9                   -0.5368978962413732      0.6523396446589569
3.21E9                   -0.47469909435866886     0.697473333156313
3.24E9                   -0.408811759762705       0.7366654061382596
3.27E9                   -0.33980335465194084     0.7696257439198153
3.3E9                    -0.26826317685231393     0.7961182777540121
3.33E9                   -0.19479727556121615     0.8159626214640339
3.36E9                   -0.1200232146016596      0.8290352579909345
3.39E9                   -0.044564704691072876    0.8352702546129195
3.42E9                   0.03095386702908627      0.8346594719649147
3.45E9                   0.10591296906695594      0.827252225014599
3.48E9                   0.17970345915971198      0.8131543520474479
3.51E9                   0.2517320361370645       0.792526654110311
3.54E9                   0.3214265035443454       0.7655826851068047
3.57E9                   0.3882407208704381       0.7325859027018279
3.6E9                    0.4516591128897524       0.6938462296473737
3.63E9                   0.511200619315451        0.6497161175276348
3.66E9                   0.5664219959414897       0.6005862413283701
3.69E9                   0.6169204196110116       0.5468809761791728
3.72E9                   0.6623353946146815       0.48905381433422834
3.75E9                   0.7023500008275833       0.42758287396938466
3.78E9                   0.73669156294552         0.36296663632811826
3.81E9                   0.7651318587558017       0.2957200248099225
3.84E9                   0.7874870234217387       0.2263709026007931
3.87E9                   0.8036173381729491       0.1554570060986478
3.9E9                    0.8134270977740421       0.08352324908773012
3.93E9                   0.8168647132751303       0.0111192429795804
3.96E9                   0.8139231198780238       -0.06120318956450537
3.99E9                   0.8046404412425798       -0.13289274683825147
4.02E9                   0.789100745968026        -0.2034018170616465
4.05E9                   0.7674346564273485       -0.27219017306292614
4.08E9                   0.7398195569197927       -0.33872915783116864
4.11E9                   0.7064791965875664       -0.40250621690727195
4.14E9                   0.6676825721702259       -0.4630295671308713
4.17E9                   0.6237420773283276       -0.5198327773939309
4.2E9                    0.5750109919606045       -0.5724790698671225
4.23E9                   0.5218804392899514       -0.6205652124367331
4.26E9                   0.4647759543817328       -0.6637249440775277
4.29E9                   0.4041537899158996       -0.7016319353263105
4.32E9                   0.3404970459020449       -0.7340023229169855
4.35E9                   0.27431166574208404      -0.7605968666034849
4.38E9                   0.20612230636459294      -0.7812227617910859
4.41E9                   0.13646807354275234      -0.7957351147446942
4.44E9                   0.06589811642747527      -0.8040380598502112
4.47E9                   -0.005032907777135165    -0.8060854801301149
4.5E9                    -0.0757694646596816      -0.801881286902286
4.53E9                   -0.14575981206510846     -0.7914792218935247
4.56E9                   -0.2144606343517806      -0.774982162422762
4.59E9                   -0.28134155951734335     -0.7525409340244132
4.62E9                   -0.34588947993966257     -0.7243526612524326
4.65E9                   -0.4076126122495663      -0.6906587115044011
4.68E9                   -0.4660442576202699      -0.6517423022278339
4.71E9                   -0.5207462555087757      -0.6079258424271519
4.74E9                   -0.5713121519997881      -0.5595680619219299
4.77E9                   -0.6173701170667691      -0.5070609501142503
4.8E9                    -0.6585856357124047      -0.4508264916437404
4.83E9                   -0.6946639676184845      -0.3913131642157668
4.86E9                   -0.7253523299581316      -0.3289921653207471
4.89E9                   -0.7504417243752788      -0.26435336146496
4.92E9                   -0.7697683156283874      -0.1979009973818755
4.95E9                   -0.7832142816475687      -0.13014924985053736
4.98E9                   -0.7907080904896531      -0.061617747301381656
5.01E9                   -0.792224210667718       0.007172807285197641
5.04E9                   -0.7877823168781979      0.07570478194222308
5.07E9                   -0.7774461009996971      0.14346743700951808
5.1E9                    -0.7613218254099237      0.20996038683407703
5.13E9                   -0.7395567505244502      0.2746967341845262
5.16E9                   -0.7123375259055438      0.3372059680040662
5.19E9                   -0.6798885625403398      0.39703674110060505
5.22E9                   -0.6424703272554858      0.4537596218498731
5.25E9                   -0.600377452206532       0.5069698465711981
5.28E9                   -0.5539365588333647      0.5562900143405479
5.31E9                   -0.5035037570769159      0.6013726049011974
5.34E9                   -0.4494618678670686      0.641902194707888
5.37E9                   -0.39221748624636854     0.6775972989788989
5.4E9                    -0.33219802065872434     0.7082118515434811
5.43E9                   -0.2698488059928736      0.7335364084174805
5.46E9                   -0.20563031537816318     0.7533991946908758
5.49E9                   -0.1400154211919464      0.7676670991223054
5.52E9                   -0.07348660569015202     0.776246669098346
5.55E9                   -0.006533007617604803    0.7790850917848696
5.58E9                   0.060352788505803015     0.77617108503709
5.61E9                   0.12667826769497345      0.7675355769573287
5.64E9                   0.19195478976435645      0.7532520331598968
5.67E9                   0.2557016023953397       0.7334363008283362
5.7E9                    0.3174499199737694       0.7082458817995939
5.73E9                   0.37674689239352815      0.6778786201683942
5.76E9                   0.43315929903336026      0.6425708766441247
5.79E9                   0.4862768646223728       0.6025953310922969
5.82E9                   0.535715186671367        0.5582585739290784
5.85E9                   0.5811183478562859       0.509898604891334
5.88E9                   0.6221613225421138       0.4578822756183827
5.91E9                   0.6585522625624858       0.40260263298673266
5.94E9                   0.6900346841012592       0.34447607900600585
5.97E9                   0.7163895102975772       0.28393927014208054
6.0E9                    0.7374368801832042       0.22144571922569578
