% Model:              three_layers reality at 0.1mm.mph
% Version:            COMSOL 5.6.0.280
% Date:               Mar 9 2022, 15:26
% Table:              表格 1 - 全局计算 1
% freq (Hz)              real(emw.S11) (1)        imag(emw.S11) (1)
300000000                0.5834985358011523       -0.7702791315475955
330000000                0.5107917284684896       -0.819463563991606
360000000                0.43401830817694353      -0.861872669540606
390000000                0.3538601205434221       -0.8971652827546758
420000000                0.2709458326380951       -0.9250804051546114
450000000                0.18593484575578823      -0.9454018520488795
480000000                0.0995107405485653       -0.9579738421651322
510000000                0.012370470396118983     -0.9627013045592663
540000000                -0.07478127546628421     -0.9595514050248108
570000000                -0.16123786128027434     -0.9485544756212628
600000000                -0.24629658748305483     -0.9298043487211279
630000000                -0.32926461111460115     -0.9034580970506056
660000000                -0.4094648469023161      -0.8697351822183688
690000000                -0.48624179177376786     -0.8289160172976304
720000000                -0.5589672156724335      -0.7813399521725605
750000000                -0.627045660268659       -0.7274026963669353
780000000                -0.6899196887206493      -0.6675531982869374
810000000                -0.7470748311091766      -0.6022900063293015
840000000                -0.7980441717228346      -0.5321571421460428
870000000                -0.8424125266362247      -0.45773952424155206
900000000                -0.8798201654788781      -0.37965798348401386
930000000                -0.9099660339240105      -0.29856391950706895
960000000                -0.9326104405100026      -0.21513365024388342
990000000                -0.9475771756717398      -0.13006251286424095
1020000000               -0.9547550391259425      -0.04405877641369122
1050000000               -0.9540987577941196      0.04216257050051735
1080000000               -0.9456292842234876      0.12788609088588027
1110000000               -0.9294334733260854      0.2124021640958197
1140000000               -0.905663142605953       0.2950131782596695
1170000000               -0.8745335289170968      0.3750395854432833
1200000000               -0.8363211619266235      0.4518257580068206
1230000000               -0.7913611815338717      0.524745586528629
1260000000               -0.7400441329475342      0.5932077644305344
1290000000               -0.6828122783409415      0.6566607095226363
1320000000               -0.6201554698015153      0.7145970769593785
1350000000               -0.5526066318717943      0.7665578251181544
1380000000               -0.4807369052442832      0.8121358017967086
1410000000               -0.40515050612686654     0.8509788243626526
1440000000               -0.32647935656567695     0.8827922346644409
1470000000               -0.24537754215345542     0.9073409155470329
1500000000               -0.16251565321895925     0.9244507625156022
1530000000               -0.07857506465553961     0.9340096100085408
1560000000               0.0057577925528109475    0.9359676177700561
1590000000               0.0897971163484435       0.930337127686788
1620000000               0.17286332728034015      0.9171920065756185
1650000000               0.2542885255827317       0.8966664944556954
1680000000               0.33342176937683554      0.8689535814847782
1710000000               0.4096341370873896       0.8343029398117168
1740000000               0.48232353863601607      0.7930184391127935
1770000000               0.5509192459434085       0.7454552764857327
1800000000               0.6148861159029302       0.6920167526104997
1830000000               0.6737284827740059       0.6331507274578062
1860000000               0.7269937007962611       0.5693457889403483
1890000000               0.7742753207815242       0.5011271684407701
1920000000               0.8152158879742952       0.42905243656543846
1950000000               0.8495093503921493       0.35370701311530495
1980000000               0.8769030706016686       0.2756995234765249
2010000000               0.897199435133808        0.1956570343820841
2040000000               0.9102570586572561       0.11422020023442887
2070000000               0.9159915813705564       0.032038351290338996
2100000000               0.9143760602049152       -0.05023544591563517
2130000000               0.905440955984961        -0.13194932633423165
2.16E9                   0.889273720300016        -0.21245753336692488
2.19E9                   0.8660179873858862       -0.2911252663713103
2.22E9                   0.8358723779960215       -0.3673334411838733
2.25E9                   0.7990889236856742       -0.4404833373018331
2.28E9                   0.755971121289873        -0.5100011060877601
2.31E9                   0.7068716284461793       -0.575342116522933
2.34E9                   0.6521896110055643       -0.6359951171231335
2.37E9                   0.5923677515751663       -0.6914861950588049
2.4E9                    0.5278889245111856       -0.7413825147003598
2.43E9                   0.45927253530021733      -0.7852958164673551
2.46E9                   0.387070513073563        -0.8228856480199183
2.49E9                   0.31186293788766567      -0.8538622799718404
2.52E9                   0.2342532914901277       -0.877989224495679
2.55E9                   0.15486335712720223      -0.8950852371866406
2.58E9                   0.07432787013164521      -0.9050256680093551
2.61E9                   -0.006710881203126995    -0.9077430772643041
2.64E9                   -0.0876082520889959      -0.9032271681110899
2.67E9                   -0.1677220525900207      -0.8915242548943937
2.7E9                    -0.24641699094144728     -0.8727365626046059
2.73E9                   -0.32306897359456804     -0.8470215452743468
2.76E9                   -0.39706954329703587     -0.814591177537867
2.79E9                   -0.46783060250734065     -0.7757109854419059
2.82E9                   -0.534789362941573       -0.7306985587885724
2.85E9                   -0.5974133260080807      -0.6799213993124923
2.88E9                   -0.6552050820661712      -0.623794097544216
2.91E9                   -0.707706773469118       -0.5627749187754353
2.94E9                   -0.7545041354430895      -0.4973619044206801
2.97E9                   -0.7952300775882405      -0.4280885836247296
3.0E9                    -0.8295677910081682      -0.35551936975781817
3.03E9                   -0.8572533732546866      -0.28024469920516565
3.06E9                   -0.8780779625319737      -0.20287596155423235
3.09E9                   -0.8918893718799297      -0.12404026656911288
3.12E9                   -0.8985932138170313      -0.04437509468473002
3.15E9                   -0.8981535085349454      0.03547712121389455
3.18E9                   -0.8905927723338691      0.11487443286077861
3.21E9                   -0.8759915879467628      0.1931807816107888
3.24E9                   -0.8544876638831232      0.26977132049662694
3.27E9                   -0.8262743954237648      0.3440376033499626
3.3E9                    -0.7915989454203498      0.41539259237578086
3.33E9                   -0.7507598679570342      0.4832754388575975
3.36E9                   -0.704104302664585       0.5471559939360845
3.39E9                   -0.6520247715417643      0.6065390104811486
3.42E9                   -0.5949556136097531      0.6609680010468111
3.45E9                   -0.5333690962094638      0.7100287206307081
3.48E9                   -0.46777124382107776     0.7533522482571359
3.51E9                   -0.398697427823577       0.7906176454682342
3.54E9                   -0.32670776207259355     0.8215541750089819
3.57E9                   -0.2523823497512791      0.8459430682648371
3.6E9                    -0.1763164279182542      0.8636188347789375
3.63E9                   -0.09911545517143434     0.8744701128046531
3.66E9                   -0.021390187005241756    0.8784400646804378
3.69E9                   0.056248219013103555     0.8755263257056992
3.72E9                   0.13319302853218923      0.8657805190437169
3.75E9                   0.20884665026914853      0.8493073523515279
3.78E9                   0.28262521774671756      0.8262633135891083
3.81E9                   0.3539630029401819       0.796854984302851
3.84E9                   0.4223166338453874       0.7613369889150916
3.87E9                   0.48716908871970194      0.7200095987458885
3.9E9                    0.5480334387582156       0.6732160108999209
3.93E9                   0.6044563107975286       0.6213393247286607
3.96E9                   0.6560210408745267       0.5647992434657384
3.99E9                   0.7023504915333096       0.5040485349021949
4.02E9                   0.7431095106559508       0.43956929168162334
4.05E9                   0.7780070177981724       0.3718690375084496
4.08E9                   0.8067977156678225       0.30147672719209057
4.11E9                   0.8292834361524627       0.22893868499852257
4.14E9                   0.8453141395160725       0.15481451687461578
4.17E9                   0.8547885887457625       0.07967301996246817
4.2E9                    0.8576547175534732       0.004088101877391271
4.23E9                   0.8539097023005265       -0.07136528381183496
4.26E9                   0.8435997395011882       -0.14611517873804294
4.29E9                   0.8268195258886337       -0.21959662478330683
4.32E9                   0.8037114389353253       -0.2912556141904677
4.35E9                   0.7744644206892517       -0.36055296253790015
4.38E9                   0.7393125728130215       -0.42696808449846596
4.41E9                   0.6985334723814369       -0.49000265684281347
4.44E9                   0.6524462151412482       -0.5491841573082962
4.47E9                   0.6014091875018241       -0.6040692682189414
4.5E9                    0.5458175637636657       -0.6542471293320262
4.53E9                   0.486100523765964        -0.6993424169195896
4.56E9                   0.42271819007694944      -0.739018217626273
4.59E9                   0.3561582913954425       -0.7729786602782611
4.62E9                   0.2869325690872399       -0.8009712666667421
4.65E9                   0.21557295412319155      -0.8227889847791761
4.68E9                   0.14262754978185388      -0.8382718743264764
4.71E9                   0.06865646132058689      -0.8473084227519703
4.74E9                   -0.005772484868678163    -0.8498364796477609
4.77E9                   -0.08008809228484513     -0.8458438059007349
4.8E9                    -0.1537201797380389      -0.8353682395683677
4.83E9                   -0.22610397143112781     -0.818497482496316
4.86E9                   -0.29668446538899856     -0.7953685102394854
4.89E9                   -0.36492075514978795     -0.766166604862653
4.92E9                   -0.43029027674210507     -0.7311240078885
4.95E9                   -0.4922929484289984      -0.6905181907774408
4.98E9                   -0.5504551656818749      -0.644669743473762
5.01E9                   -0.6043336098910839      -0.5939398873257846
5.04E9                   -0.6535188278460212      -0.5387276257780161
5.07E9                   -0.6976385390862645      -0.4794665542328252
5.1E9                    -0.7363606310749926      -0.41662135815912005
5.13E9                   -0.7693958067552007      -0.3506840359070994
5.16E9                   -0.7964998561287168      -0.2821698887110738
5.19E9                   -0.8174755325498296      -0.21161332369020927
5.22E9                   -0.8321740239227217      -0.139563515539136
5.25E9                   -0.8404960169015134      -0.06657996818301044
5.28E9                   -0.8423923557956953      0.006771988679829097
5.31E9                   -0.837864296661368       0.07992573900511767
5.34E9                   -0.8269633525648893      0.15231792789565174
5.37E9                   -0.8097907221306239      0.22339298524771412
5.4E9                    -0.7864962937500762      0.2926075859420173
5.43E9                   -0.7572772236298304      0.3594349990534935
5.46E9                   -0.7223760960335405      0.4233692737675475
5.49E9                   -0.6820786860527062      0.4839292096078424
5.52E9                   -0.6367113566253233      0.5406620629550845
5.55E9                   -0.5866381307502467      0.5931469497318389
5.58E9                   -0.532257486407789       0.6409979143206888
5.61E9                   -0.4739989245850553      0.6838666469403283
5.64E9                   -0.41231935908415934     0.7214448445452988
5.67E9                   -0.3476993699300411      0.7534662211166816
5.7E9                    -0.2806393501799798      0.779708179600273
5.73E9                   -0.2116555629895471      0.7999931554449508
5.76E9                   -0.14127611758916245     0.8141896311719279
5.79E9                   -0.07003687497233564     0.8222128072752954
5.82E9                   0.001522692374101098     0.8240249054684287
5.85E9                   0.07286364395848342      0.8196350832746566
5.88E9                   0.14345166163888923      0.8090989546379321
5.91E9                   0.21276102919984458      0.7925177329378501
5.94E9                   0.28027845503262355      0.7700370308156703
5.97E9                   0.34550670961647434      0.7418453591301025
6.0E9                    0.40796806650587814      0.7081723648216346
