% Model:              three_layers reality at 0.1mm.mph
% Version:            COMSOL 5.6.0.280
% Date:               Feb 23 2022, 16:53
% Table:              表格 1 - 全局计算 1
% freq (Hz)              real(emw.S11) (1)        imag(emw.S11) (1)
300000000                0.4493218973074612       -0.7269880402925135
330000000                0.37575342203324563      -0.7644306847292065
360000000                0.29928640094897807      -0.7946646858684381
390000000                0.22059300836471485      -0.8174580545276302
420000000                0.14037053805999947      -0.8326447680936717
450000000                0.0593329369397992       -0.8401266390378068
480000000                -0.02179714906291661     -0.8398744142787135
510000000                -0.1022959809627551      -0.8319281313218124
540000000                -0.18144605395410718     -0.8163967542216035
570000000                -0.2585431640133731      -0.7934571124891522
600000000                -0.33290320170313364     -0.7633521680776542
630000000                -0.4038686456461478      -0.7263886387004711
660000000                -0.47081471825916926     -0.6829340097566973
690000000                -0.5331551631840067      -0.6334129711035956
720000000                -0.5903476017316516      -0.5783033195930409
750000000                -0.6418984278402031      -0.5181313719531769
780000000                -0.6873672023598028      -0.4534669371732726
810000000                -0.7263705120878813      -0.3849179005773804
840000000                -0.7585852627133914      -0.3131244753123864
870000000                -0.7837513801684723      -0.23875317949799554
900000000                -0.8016739002997699      -0.16249059926129697
930000000                -0.8122244324727683      -0.08503699961342659
960000000                -0.8153419888403848      -0.007099845797986786
990000000                -0.8110331770495695      0.0706127019687426
1020000000               -0.799371760290911       0.14739825775271098
1050000000               -0.7804975947195456      0.22256658164233856
1080000000               -0.7546149601210002      0.2954457942382522
1110000000               -0.7219903054506849      0.3653883760680097
1140000000               -0.6829494362864253      0.4317768972053353
1170000000               -0.6378741762943104      0.494029425546274
1200000000               -0.5871985394867542      0.5516045660019633
1230000000               -0.531404454322962       0.6040060870688096
1260000000               -0.471017084432655       0.6507870958029124
1290000000               -0.4065997939314831      0.6915537272323637
1320000000               -0.3387488081084844      0.7259683191787949
1350000000               -0.26808762230399835     0.7537520489835495
1380000000               -0.19526121345592762     0.774687013965398
1410000000               -0.12093010971928866     0.7886177430550153
1440000000               -0.04576437414815757     0.7954521325013252
1470000000               0.02956244178769314      0.7951618041024192
1500000000               0.10437931967919988      0.7877818897845834
1530000000               0.1780237165407016       0.7734102515635028
1560000000               0.24984737566950024      0.7522061509975237
1590000000               0.3192219556827709       0.7243883870451184
1620000000               0.3855444298599062       0.6902329257590678
1650000000               0.4482422109235463       0.6500700495046762
1680000000               0.506777959627474        0.6042810572613992
1710000000               0.5606540390695216       0.5532945511950531
1740000000               0.6094165807905174       0.4975823477382759
1770000000               0.6526591327060228       0.43765505435656227
1800000000               0.6900258636883042       0.3740573554182482
1830000000               0.7212143043426078       0.30736305255026664
1860000000               0.74597760881923         0.23816990620194273
1890000000               0.7641263279886357       0.16709432594392004
1920000000               0.7755296904748022       0.09476595676915622
1950000000               0.7801163943971297       0.021822207647726365
1980000000               0.7778749197561947       -0.05109723463454324
2010000000               0.7688533784167831       -0.12335586855420584
2040000000               0.7531589252230152       -0.19432578946421883
2070000000               0.7309567578222655       -0.2633930357532463
2100000000               0.7024687306864017       -0.3299628769106275
2130000000               0.6679715933838513       -0.39346507922691387
2.16E9                   0.6277948235057544       -0.4533592149704325
2.19E9                   0.5823179465856733       -0.5091400975339253
2.22E9                   0.5319671115093673       -0.5603433908299972
2.25E9                   0.47721054313593414      -0.6065512950601772
2.28E9                   0.4185524200110333       -0.6473978883673219
2.31E9                   0.35652492201023417      -0.682573224404108
2.34E9                   0.2916788805342327       -0.7118249013708057
2.37E9                   0.22457458582764575      -0.7349560676582997
2.4E9                    0.15577516253744808      -0.7518201697409567
2.43E9                   0.08584438597954912      -0.7623147428123936
2.46E9                   0.0153485498942338       -0.7663775977756048
2.49E9                   -0.05514049290055461     -0.7639875173480696
2.52E9                   -0.12504455514511612     -0.7551687788794146
2.55E9                   -0.19378229352093276     -0.7399967867207974
2.58E9                   -0.26077570325016614     -0.7186021648817836
2.61E9                   -0.32545811077017417     -0.6911721091631833
2.64E9                   -0.38728202790826904     -0.6579491878059042
2.67E9                   -0.44572600265756873     -0.6192284029049127
2.7E9                    -0.5003002708205389      -0.5753533086140082
2.73E9                   -0.5505513547142955      -0.5267117123160117
2.76E9                   -0.5960658410572078      -0.4737312227430551
2.79E9                   -0.63647353367225        -0.41687474119409773
2.82E9                   -0.6714501086219695      -0.3566359110840885
2.85E9                   -0.7007193404767582      -0.2935345140593376
2.88E9                   -0.7240549284881559      -0.22811180060510533
2.91E9                   -0.7412819286557544      -0.1609257523152552
2.94E9                   -0.752277786470417       -0.09254628441363273
2.97E9                   -0.7569729614384313      -0.023550407029655492
3.0E9                    -0.7553511350380852      0.045482628566679284
3.03E9                   -0.7474489967293283      0.11397616705761977
3.06E9                   -0.7333556069194012      0.1813609342358311
3.09E9                   -0.7132113407293116      0.24707973327943764
3.12E9                   -0.6872064215015026      0.31059201499818534
3.15E9                   -0.655579057826176       0.3713782862970019
3.18E9                   -0.618613201850401       0.4289443238398022
3.21E9                   -0.5766359494302608      0.48282516338638115
3.24E9                   -0.5300146036600175      0.5325888393010165
3.27E9                   -0.4791534226615289      0.577839851884012
3.3E9                    -0.4244900703321851      0.6182223419623277
3.33E9                   -0.36649178609270017     0.6534229514842851
3.36E9                   -0.3056512877284343      0.683173345436126
3.39E9                   -0.2424824217512237      0.7072523644447203
3.42E9                   -0.1775155797878032      0.7254877699063469
3.45E9                   -0.1112929085753871      0.7377575360637332
3.48E9                   -0.044363355578102316    0.7439906387234577
3.51E9                   0.02272238861846674      0.7441672911394153
3.54E9                   0.08941696868725356      0.7383185869184223
3.57E9                   0.15518136185229406      0.7265255292163955
3.6E9                    0.21948968024405266      0.7089174542112078
3.63E9                   0.2818336641927459       0.6856698908502222
3.66E9                   0.3417267657211829       0.6570019318091541
3.69E9                   0.398707745884175        0.6231732162081394
3.72E9                   0.4523437395226722       0.5844806399360787
3.75E9                   0.5022327714644783       0.5412549159374507
3.78E9                   0.5480057382921272       0.4938571084448631
3.81E9                   0.5893279034831818       0.44267526271728974
3.84E9                   0.6258999944013187       0.3881212400115942
3.87E9                   0.6574590340769672       0.33062783555773345
3.9E9                    0.6837790744845006       0.2706461981720791
3.93E9                   0.7046720010534817       0.20864348891357942
3.96E9                   0.7199885355211649       0.14510063405346238
3.99E9                   0.7296194784590142       0.08050997385969054
4.02E9                   0.733497126046617        0.015372606604962414
4.05E9                   0.7315967012484759       -0.04980471829858636
4.08E9                   0.7239375868719145       -0.1145132098797002
4.11E9                   0.710584150171264        -0.1782460955373628
4.14E9                   0.6916459993859558       -0.24050299461888205
4.17E9                   0.6672775916318578       -0.300794424016271
4.2E9                    0.6376771942706583       -0.3586462528603809
4.23E9                   0.603085267276989        -0.4136039580634527
4.26E9                   0.5637823699180053       -0.4652365868876544
4.29E9                   0.5200866987444309       -0.5131403890636006
4.32E9                   0.4723513422756323       -0.5569421237484046
4.35E9                   0.4209613033558135       -0.5963020671613236
4.38E9                   0.3663303071150077       -0.6309167446567755
4.41E9                   0.30889739145005407      -0.6605213930489859
4.44E9                   0.24912327227225256      -0.6848921355483206
4.47E9                   0.18748648565558546      -0.7038478320254011
4.5E9                    0.12447932768724784      -0.7172515572789591
4.53E9                   0.06060363405251437      -0.7250116610396097
4.56E9                   -0.003633539920073581    -0.7270823744477144
4.59E9                   -0.06772426541089197     -0.7234639463839037
4.62E9                   -0.13116403513180827     -0.7142023163778763
4.65E9                   -0.193455936677322       -0.6993883550636736
4.68E9                   -0.25411465178050313     -0.6791567227607436
4.71E9                   -0.3126702557911699      -0.6536844052250678
4.74E9                   -0.3686718198209604      -0.6231889781270514
4.77E9                   -0.4216908371323232      -0.5879266287767922
4.8E9                    -0.4713244965704684      -0.5481899326863625
4.83E9                   -0.5171988065390684      -0.5043053564985615
4.86E9                   -0.5589715398473335      -0.45663044969746913
4.89E9                   -0.5963349353542651      -0.40555070085165434
4.92E9                   -0.6290180700368679      -0.35147606640021967
4.95E9                   -0.6567888128645836      -0.2948372213997858
4.98E9                   -0.6794552911471617      -0.23608162042318775
5.01E9                   -0.6968668365118877      -0.17566948341995128
5.04E9                   -0.7089144243866063      -0.11406982896037604
5.07E9                   -0.7155306685228296      -0.05175666239156407
5.1E9                    -0.7166894696880777      0.01079461114930596
5.13E9                   -0.7124054329694259      0.07311053364796809
5.16E9                   -0.7027331515287996      0.1347227439851011
5.19E9                   -0.6877664056290134      0.1951710148932728
5.22E9                   -0.6676372585077336      0.2540062659145786
5.25E9                   -0.6425149727445958      0.3107936013853308
5.28E9                   -0.6126046511439643      0.36511535239436865
5.31E9                   -0.5781455379072294      0.41657403394830567
5.34E9                   -0.5394089855254195      0.46479509772220234
5.37E9                   -0.49669616611518397     0.5094293829649909
5.4E9                    -0.4503356474977953      0.5501552315147962
5.43E9                   -0.4006809471217101      0.5866803064427167
5.46E9                   -0.34810812835625704     0.6187432057045861
5.49E9                   -0.2930134373817494      0.6461149749916263
5.52E9                   -0.23581092006543303     0.668600598851736
5.55E9                   -0.1769299235807985      0.6860404992728422
5.58E9                   -0.11681238248307652     0.698312012788697
5.61E9                   -0.05590981146924534     0.7053307642817601
5.64E9                   0.0053200284185217946    0.7070518178876511
5.67E9                   0.06641676347192682      0.7034704708080103
5.7E9                    0.1269212494931054       0.694622571993677
5.73E9                   0.1863794782633626       0.6805842981670664
5.76E9                   0.24434638482455126      0.6614713964490049
5.79E9                   0.30038942116148637      0.6374379815353783
5.82E9                   0.35409183395482985      0.6086750222590396
5.85E9                   0.40505566858816755      0.5754086445519985
5.88E9                   0.452904578776597        0.5378983207452593
5.91E9                   0.49728652744732876      0.49643494055427556
5.94E9                   0.5378764251263938       0.4513387039425982
5.97E9                   0.5743786938146105       0.4029567599908238
6.0E9                    0.6065296946691068       0.3516605353457437
