% Model:              three_layers reality at 0.1mm.mph
% Version:            COMSOL 5.6.0.280
% Date:               Feb 23 2022, 16:56
% Table:              表格 1 - 全局计算 1
% freq (Hz)              real(emw.S11) (1)        imag(emw.S11) (1)
300000000                0.44806364328650655      -0.7270162284976308
330000000                0.3744227875553559       -0.7643595604912701
360000000                0.29789281033245646      -0.7944815244887264
390000000                0.21914746743023772      -0.8171510173794841
420000000                0.13888559145480936      -0.8322031058720045
450000000                0.057822586779372645     -0.839540891955873
480000000                -0.023317558761039872    -0.8391366038668204
510000000                -0.10380991024709196     -0.8310319392681861
540000000                -0.1829359400558783      -0.815337684316253
570000000                -0.25999061773368287     -0.7922326323084274
600000000                -0.33428922431300256     -0.7619618274854423
630000000                -0.40517386230526153     -0.724834162804856
660000000                -0.47201962476861237     -0.6812193642909281
690000000                -0.53424038215877        -0.6315443987946177
720000000                -0.5912941447813448      -0.576289346305607
750000000                -0.6426879595958849      -0.5159827822377814
780000000                -0.6879823029665971      -0.45119671882273127
810000000                -0.7267949341988493      -0.382541158651003
840000000                -0.7588041794734002      -0.31065831628009
870000000                -0.7837516206524312      -0.23621656664325108
900000000                -0.8014441690742793      -0.15990418091130532
930000000                -0.8117555101679035      -0.08242291212786795
960000000                -0.8146269108931101      -0.004481493506348852
990000000                -0.810067388015548       0.0732108872367178
1020000000               -0.798153241502376       0.1499510747204689
1050000000               -0.7790269633633029      0.2250483322063715
1080000000               -0.7528955382089452      0.2978305672737748
1110000000               -0.7200281575213432      0.36765033912078005
1140000000               -0.6807533750819588      0.4338905924748394
1170000000               -0.6354557360473831      0.4959700666315445
1200000000               -0.5845719168691746      0.5533483318118184
1230000000               -0.5285864175073675      0.605530409326347
1260000000               -0.46802685106486186     0.6520709367416487
1290000000               -0.40345887925530965     0.6925778440693431
1320000000               -0.3354808447941112      0.7267155122098733
1350000000               -0.2647181538606511      0.7542073903195313
1380000000               -0.19181746345764897     0.7748380541347687
1410000000               -0.1174407293361691      0.7884546929803289
1440000000               -0.04225917068376788     0.7949680186593504
1470000000               0.03305279239747403      0.7943525949663219
1500000000               0.10782357322455578      0.7866465919827108
1530000000               0.18139037057879756      0.7719509745507349
1560000000               0.2531049858253656       0.7504281393804599
1590000000               0.32233945480194603      0.7223000200609222
1620000000               0.3884914465432765       0.6878456837986776
1650000000               0.4509893840569964       0.6473984478965489
1680000000               0.5092972454763356       0.6013425479411374
1710000000               0.5629190077070944       0.5501093931817367
1740000000               0.611402698668168        0.49417344772596156
1770000000               0.6543440284062477       0.4340477790058347
1800000000               0.6913895740605001       0.3702793172621971
1830000000               0.7222394984892017       0.3034438716722191
1860000000               0.746649787615629        0.23414095012834407
1890000000               0.7644339971709915       0.1629884303424376
1920000000               0.7754645055982803       0.09061712978745845
1950000000               0.7796732763496274       0.017665320746880975
1980000000               0.7770521398358459       -0.055226766325947196
2010000000               0.7676526123702612       -0.12742241348563252
2040000000               0.7515852759695779       -0.1982938316285452
2070000000               0.7290187468874628       -0.26722750879666096
2100000000               0.7001782585005967       -0.33362949817725984
2130000000               0.6653438685583168       -0.3969306818950676
2.16E9                   0.6248482606693927       -0.4565920770191249
2.19E9                   0.5790740313449126       -0.5121102663776111
2.22E9                   0.5284502294400468       -0.5630230019251548
2.25E9                   0.473447767836824        -0.6089148806066724
2.28E9                   0.41457325444701426      -0.6494226677951908
2.31E9                   0.35236098999019205      -0.6842393619186682
2.34E9                   0.28736357359556325      -0.7131157104227832
2.37E9                   0.22014268497495237      -0.7358581433929929
2.4E9                    0.1512624668961541       -0.7523234439138136
2.43E9                   0.08128738079167751      -0.7624124782273356
2.46E9                   0.010784127942416255     -0.7660663576517472
2.49E9                   -0.05967526956699807     -0.7632671441631769
2.52E9                   -0.12951268377442846     -0.7540423971826175
2.55E9                   -0.1981470775781885      -0.7384708204293045
2.58E9                   -0.2650010298868032      -0.7166863468883847
2.61E9                   -0.32950875476357083     -0.68887946251751
2.64E9                   -0.3911239695415108      -0.6552959664693041
2.67E9                   -0.44932674579017134     -0.6162339889395112
2.7E9                    -0.5036291502831349      -0.5720400682319529
2.73E9                   -0.5535798256318513      -0.5231048156196624
2.76E9                   -0.5987677455706473      -0.46985843237715197
2.79E9                   -0.6388253423714917      -0.4127661746785043
2.82E9                   -0.6734311350022828      -0.3523237809692883
2.85E9                   -0.7023119272762037      -0.2890528495532573
2.88E9                   -0.7252446051177984      -0.22349615383906998
2.91E9                   -0.7420575390289739      -0.15621289231641852
2.94E9                   -0.7526315867474063      -0.08777388165281365
2.97E9                   -0.7569006873420078      -0.018756711359212086
3.0E9                    -0.7548520385606005      0.05025911378001483
3.03E9                   -0.7465258522472594      0.11869701180639668
3.06E9                   -0.732014686943713       0.18598810702662832
3.09E9                   -0.7114623617407956      0.2515759218166084
3.12E9                   -0.6850624605531321      0.3149209397432858
3.15E9                   -0.6530564408133757      0.37550500434595946
3.18E9                   -0.6157313645807039      0.4328355206374561
3.21E9                   -0.5734172727957276      0.48644942998965573
3.24E9                   -0.5264842243961947      0.5359169330192394
3.27E9                   -0.47533902129584826     0.580844938297593
3.3E9                    -0.4204216380268644      0.620880216469396
3.33E9                   -0.3622013721617009      0.6557122386360928
3.36E9                   -0.30117272970269354     0.6850756743989997
3.39E9                   -0.23785105993304667     0.7087525190025513
3.42E9                   -0.17276795844375778     0.726573811389967
3.45E9                   -0.10646646609431745     0.7384208976781256
3.48E9                   -0.03949610625836755     0.7442261897823488
3.51E9                   0.02759217813722561      0.7439733699073602
3.54E9                   0.09425110488562237      0.7376970010622905
3.57E9                   0.15994204789272892      0.7254815233514305
3.6E9                    0.224139833507909        0.7074596446779488
3.63E9                   0.28633722362556496      0.6838101686342112
3.66E9                   0.3460489849167921       0.6547553353377928
3.69E9                   0.4028154682500411       0.6205577765363544
3.72E9                   0.4562056524240518       0.5815172014915152
3.75E9                   0.5058196369596518       0.5379669365121204
3.78E9                   0.5512905989430917       0.4902704424100655
3.81E9                   0.5922862626209916       0.43881793160780075
3.84E9                   0.6285099712583548       0.3840231944403372
3.87E9                   0.6597014951625365       0.3263207119419516
3.9E9                    0.6856377433828641       0.2661630728360962
3.93E9                   0.7061335491740568       0.20401863093555495
3.96E9                   0.7210426560916745       0.1403692569537108
3.99E9                   0.7302589452447616       0.07570798511920285
4.02E9                   0.7337178370123216       0.010536353596662775
4.05E9                   0.7313977060796184       -0.054638707254667164
4.08E9                   0.7233210962476943       -0.11930848978855757
4.11E9                   0.7095555242057845       -0.18296657357429494
4.14E9                   0.6902137127846782       -0.24511320161937278
4.17E9                   0.6654531737764323       -0.30525978563521944
4.2E9                    0.6354751433906096       -0.36293335691316875
4.23E9                   0.6005229388935114       -0.4176808144499372
4.26E9                   0.5608798405740375       -0.4690728767948138
4.29E9                   0.516866606632622        -0.5167077006511797
4.32E9                   0.46883870662649696      -0.56021417208522
4.35E9                   0.4171833244782002       -0.5992548966472805
4.38E9                   0.3623161489148496       -0.6335289124334422
4.41E9                   0.3046779481517845       -0.6627741320400818
4.44E9                   0.24473092109764938      -0.686769495776666
4.47E9                   0.18295482732752327      -0.7053367988541634
4.5E9                    0.11984291687275786      -0.7183421452677383
4.53E9                   0.05589770211824412      -0.7256969822718093
4.56E9                   -0.008373367182021951    -0.7273586804528095
4.59E9                   -0.07246225222307726     -0.7233306431644261
4.62E9                   -0.13586461938959823     -0.7136619525168562
4.65E9                   -0.19808400991275674     -0.6984465833803986
4.68E9                   -0.2586358327433657      -0.677822236431237
4.71E9                   -0.31705115529263184     -0.6519688496090434
4.74E9                   -0.3728802948435095      -0.6211068397140032
4.77E9                   -0.4256962325733067      -0.5854951026423761
4.8E9                    -0.47509787314353225     -0.545428769735612
4.83E9                   -0.5207131533944048      -0.5012366916444244
4.86E9                   -0.5622019703174396      -0.4532786121297373
4.89E9                   -0.5992588640801373      -0.40194200771239014
4.92E9                   -0.6316153696231659      -0.3476386015573676
4.95E9                   -0.659041948324774       -0.29080060144952574
4.98E9                   -0.6813494306761323      -0.23187675055397952
5.01E9                   -0.6983899376546812      -0.17132830611141536
5.04E9                   -0.7100572953228106      -0.10962506866839261
5.07E9                   -0.7162870048802973      -0.04724156928118689
5.1E9                    -0.7170558679202136      0.015346515713800767
5.13E9                   -0.7123813817437625      0.07766570769506463
5.16E9                   -0.7023210026772643      0.13924787012287224
5.19E9                   -0.6869713260018617      0.19963323912734768
5.22E9                   -0.6664671636480519      0.258373429413599
5.25E9                   -0.6409804428814584      0.3150344644345932
5.28E9                   -0.6107188297991337      0.36919980943607444
5.31E9                   -0.5759240135754393      0.4204733181623175
5.34E9                   -0.5368696573507127      0.46848197341599684
5.37E9                   -0.493859095059654       0.5128783241520153
5.4E9                    -0.447222894936316       0.5533425855204844
5.43E9                   -0.3973164028851593      0.5895844420360469
5.46E9                   -0.34451733002202095     0.6213446457994187
5.49E9                   -0.2892233821322005      0.6483965143202579
5.52E9                   -0.23184986991311388     0.6705474070312795
5.55E9                   -0.17282720430611287     0.6876402094561825
5.58E9                   -0.1125981764330497      0.6995547956561599
5.61E9                   -0.05161494438701589     0.7062093866512303
5.64E9                   0.009664306046011895     0.7075616847998448
5.67E9                   0.07077899954245055      0.7036096497002722
5.7E9                    0.13127001624501614      0.6943917976313889
5.73E9                   0.19068359883924782      0.6799869573744575
5.76E9                   0.2485751578130172       0.6605134923544237
5.79E9                   0.3045128405724395       0.6361280778106906
5.82E9                   0.35808080245985574      0.6070241684555939
5.85E9                   0.40888220243471063      0.5734302839253207
5.88E9                   0.4565420033977938       0.535608181848744
5.91E9                   0.5007096630281668       0.493850913562747
5.94E9                   0.5410617613944728       0.4484807023207509
5.97E9                   0.5773045530769103       0.3998465679524722
6.0E9                    0.60917638182436         0.34832164159308054
