% Model:              cali 5.44 1.83mm.mph
% Version:            COMSOL 5.6.0.280
% Date:               Jul 10 2022, 21:28
% Table:              表格 1 - 全局计算 1
% freq (Hz)              real(emw.S11) (1)        imag(emw.S11) (1)
300000000                0.5267511491434096       -0.8145285870407983
330000000                0.4417253640324811       -0.8570984733422842
360000000                0.3536585108996702       -0.8904089068186729
390000000                0.26360659584283186      -0.9143368715253601
420000000                0.17260566503320174      -0.9288842646391082
450000000                0.08165710685581634      -0.9341695289718017
480000000                -0.008284897273133219    -0.9304177984921763
510000000                -0.09632375161399054     -0.9179500552643471
540000000                -0.181628770217303       -0.8971717107545031
570000000                -0.2634416135359956      -0.8685608535027683
600000000                -0.3410808622136234      -0.8326562776890077
630000000                -0.413944568161661       -0.7900455745659363
660000000                -0.48151082686846625     -0.741353896852164
690000000                -0.5433369190196831      -0.6872338886282634
720000000                -0.5990576578700334      -0.6283567321516635
750000000                -0.6483831964876686      -0.5654040105819349
780000000                -0.6910962881841926      -0.49906024428725265
810000000                -0.7270490131956496      -0.43000612537039595
840000000                -0.7561590667727718      -0.35891249342769105
870000000                -0.7784057280078764      -0.2864350541305371
900000000                -0.7938256130150072      -0.21320981362225272
930000000                -0.8025082966069562      -0.13984919544840338
960000000                -0.8045918780133884      -0.06693880882625305
990000000                -0.8002585664428337      0.004965164923275185
1020000000               -0.7897303632650665      0.07533801121736593
1050000000               -0.7732649126231111      0.14368800566082354
1080000000               -0.7511515794732002      0.2095574970418011
1110000000               -0.7237077950422537      0.2725236374362218
1140000000               -0.6912756850440467      0.3321988545125928
1170000000               -0.6542189656731899      0.38823116043906347
1200000000               -0.6129200602259844      0.440304376747093
1230000000               -0.5677773656801994      0.48813832282538805
1260000000               -0.5192025950039676      0.5314889749117085
1290000000               -0.46761813977032496     0.5701485678121508
1320000000               -0.41345442937965604     0.6039455953928918
1350000000               -0.35714729317402966     0.632744670076242
1380000000               -0.29913534967592054     0.6564462182848321
1410000000               -0.2398574514543154      0.6749860073857208
1440000000               -0.17975020874361577     0.6883345133433714
1470000000               -0.11924560612663147     0.6964961446243029
1500000000               -0.05876871840020464     0.699508338443016
1530000000               0.0012644736951219926    0.6974405426240361
1560000000               0.06044916975355577      0.690393092486783
1590000000               0.1183937401285462       0.6784959885797757
1620000000               0.17472162155747029      0.6619075785596769
1650000000               0.22907311730834828      0.6408131450933521
1680000000               0.2811070994592841       0.6154234012519355
1710000000               0.33050260947604093      0.5859728951579599
1740000000               0.376960352207202        0.5527183262959879
1770000000               0.42020407776089574      0.5159367767669001
1800000000               0.45998184537673253      0.4759238615901395
1830000000               0.496067163176795        0.4329918030183255
1860000000               0.5282599976360638       0.38746743463557065
1890000000               0.5563876465924297       0.33969014189298363
1920000000               0.5803054697822555       0.29000974664175533
1950000000               0.5998974711770609       0.23878434421098396
1980000000               0.6150767279239684       0.1863781024972995
2010000000               0.6257856613736262       0.13315903346518307
2040000000               0.6319961465832762       0.07949674819313034
2070000000               0.6337094576563325       0.0257602072254339
2100000000               0.6309560473686204       -0.0276845215525342
2130000000               0.6237951606128362       -0.08047648501254367
2.16E9                   0.6123142823278696       -0.1322620341957402
2.19E9                   0.5966284216515713       -0.18269696832814838
2.22E9                   0.5768792351253101       -0.231448620792981
2.25E9                   0.5532339928423847       -0.27819787458429956
2.28E9                   0.5258843924667304       -0.322641094980325
2.31E9                   0.49504522705464266      -0.36449196754151436
2.34E9                   0.4609529136265256       -0.4034832298834674
2.37E9                   0.4238638903630252       -0.4393682862228732
2.4E9                    0.38405289124414604      -0.4719226942140769
2.43E9                   0.3418111078552304       -0.5009455142244249
2.46E9                   0.2974442488720639       -0.526260511958361
2.49E9                   0.2512705086263766       -0.547717206049622
2.52E9                   0.2036184568222831       -0.5651917531658196
2.55E9                   0.15482486222220315      -0.5785876640673643
2.58E9                   0.10523246371287734      -0.5878363450850267
2.61E9                   0.055187702727179655     -0.5928974605575082
2.64E9                   0.005038431446797631     -0.5937591129133765
2.67E9                   -0.044868388443420316    -0.5904378382957375
2.7E9                    -0.09418898140963457     -0.5829784168734091
2.73E9                   -0.14258503300509223     -0.5714534982713042
2.76E9                   -0.18972592894201767     -0.5559630438585678
2.79E9                   -0.23529094328567304     -0.5366335889320508
2.82E9                   -0.27897136103323233     -0.513617329119401
2.85E9                   -0.3204725207011765      -0.48709103657539166
2.88E9                   -0.3595157630092102      -0.4572548127729163
2.91E9                   -0.3958402723922813      -0.4243306858221571
2.94E9                   -0.4292047986838851      -0.38856106140158925
2.97E9                   -0.4593892471492071      -0.3502070373813351
3.0E9                    -0.4861961258671672      -0.3095465932421076
3.03E9                   -0.5094518404256321      -0.2668726662586032
3.06E9                   -0.5290078268914208      -0.22249112724969652
3.09E9                   -0.5447415151120817      -0.17671866944048714
3.12E9                   -0.5565571155347719      -0.12988062458001784
3.15E9                   -0.5643862239089922      -0.08230872104472275
3.18E9                   -0.5681882394751181      -0.034338799058259394
3.21E9                   -0.5679505934857935      0.013691501459912173
3.24E9                   -0.5636887862021113      0.061445064692450695
3.27E9                   -0.5554462318129926      0.10858761848772368
3.3E9                    -0.5432939120401966      0.15479003377916786
3.33E9                   -0.5273298405229551      0.19973058804016924
3.36E9                   -0.5076783413928408      0.24309717713661333
3.39E9                   -0.4844891467490262      0.28458946023918213
3.42E9                   -0.45793631902871684     0.32392092287752394
3.45E9                   -0.42821700551615244     0.3608208437276753
3.48E9                   -0.3955500334325657      0.3950361513557125
3.51E9                   -0.3601743552104467      0.42633315787394577
3.54E9                   -0.32234735464630093     0.454499157296119
3.57E9                   -0.28234302564741753     0.47934387731075295
3.6E9                    -0.2404500362166962      0.500700774228585
3.63E9                   -0.1969696911703098      0.5184281619449808
3.66E9                   -0.15221380780159655     0.5324101669615952
3.69E9                   -0.10650251935076299     0.5425575027226104
3.72E9                   -0.06016202162322096     0.5488080578242526
3.75E9                   -0.013522278525831766    0.5511272939393587
3.78E9                   0.03308529744615925      0.5495084506618867
3.81E9                   0.07933017355380621      0.5439725557936935
3.84E9                   0.12488501769589569      0.5345682409633625
3.87E9                   0.1694279955806687       0.5213713638179325
3.9E9                    0.2126450280800512       0.5044844393784901
3.93E9                   0.25423199290952747      0.4840358844882202
3.96E9                   0.29389685515656866      0.46017908061190216
3.99E9                   0.33136171165533046      0.43309126151960164
4.02E9                   0.3663647347974454       0.40297223364331
4.05E9                   0.39866200206860936      0.3700429380738093
4.08E9                   0.4280291983893971       0.33454386429724203
4.11E9                   0.45426317922662246      0.29673332682361114
4.14E9                   0.47718338340764377      0.2568856168376861
4.17E9                   0.49663308562379405      0.21528904191200038
4.2E9                    0.5124804797396024       0.1722438676166947
4.23E9                   0.5246195852171426       0.1280601755709064
4.26E9                   0.5329709702147545       0.08305565309180744
4.29E9                   0.5374822862162173       0.03755333006106054
4.32E9                   0.5381286103603877       -0.008120720964095522
4.35E9                   0.5349125929969735       -0.05363970509991093
4.38E9                   0.527864409355069        -0.09867842949513136
4.41E9                   0.5170415155993346       -0.14291561515049847
4.44E9                   0.5025282109494373       -0.18603617972754885
4.47E9                   0.484435008946784        -0.22773347502936778
4.5E9                    0.4628978223525133       -0.2677114631505678
4.53E9                   0.4380769675342592       -0.30568681571727513
4.56E9                   0.4101559955191258       -0.34139092123033976
4.59E9                   0.37934035814634925      -0.37457178620390497
4.62E9                   0.3458559189190762       -0.40499581658383504
4.65E9                   0.30994731924321606      -0.43244946682876134
4.68E9                   0.27187621172616955      -0.4567407449739811
4.71E9                   0.23191937313123567      -0.47770056302020625
4.74E9                   0.19036671041556447      -0.4951839230584728
4.77E9                   0.14751917402005504      -0.5090709306868287
4.8E9                    0.10368659328129173      -0.5192676284459418
4.83E9                   0.05918544939160935      -0.5257066432719334
4.86E9                   0.014336601848466302     -0.528347643258183
4.89E9                   -0.030537015302556193    -0.5271776003930463
4.92E9                   -0.0751127108457153      -0.5222108573373172
4.95E9                   -0.11907035069439403     -0.5134889977501683
4.98E9                   -0.16209465239526769     -0.5010805211345105
5.01E9                   -0.20387744329125487     -0.4850803246140533
5.04E9                   -0.24411986606875785     -0.46560899549345103
5.07E9                   -0.28253451585002026     -0.4428119198241491
5.1E9                    -0.31884749353967384     -0.4168582135117183
5.13E9                   -0.35280036074277066     -0.3879394837535387
5.16E9                   -0.3841519823331856      -0.35626842975041423
5.19E9                   -0.4126802435092114      -0.3220772927612585
5.22E9                   -0.43818362905373837     -0.2856161666152058
5.25E9                   -0.4604826534465108      -0.24715118079361034
5.28E9                   -0.4794211315130137      -0.206962569141949
5.31E9                   -0.49486728040706246     -0.16534263813081718
5.34E9                   -0.5067146449266708      -0.12259364937582287
5.37E9                   -0.514882839473013       -0.07902563178045176
5.4E9                    -0.519318101308216       -0.034954139221810517
5.43E9                   -0.5199936511863246      0.009302029883465963
5.46E9                   -0.5169098588852542      0.053423134536594336
5.49E9                   -0.51009421263262        0.09709079789048372
5.52E9                   -0.4996010928797272      0.1399903020551616
5.55E9                   -0.4855113523176005      0.18181285440109962
5.58E9                   -0.46793170541124945     0.2222578091093897
5.61E9                   -0.44699393204904814     0.2610348280794935
5.64E9                   -0.42285390115560173     0.297865965797461
5.67E9                   -0.39569042132385834     0.33248766328988383
5.7E9                    -0.3657039266993565      0.36465263686753857
5.73E9                   -0.3331150075269205      0.39413164803042666
5.76E9                   -0.29816279594004735     0.4207151416650525
5.79E9                   -0.2611032187131911      0.4442147405700472
5.82E9                   -0.22220712976576407     0.4644645853989919
5.85E9                   -0.1817583361501198      0.48132251028904477
5.88E9                   -0.1400515320735851      0.49467104572370824
5.91E9                   -0.09739015615823554     0.5044182415243462
5.94E9                   -0.05408418765462067     0.5104983042471185
5.97E9                   -0.010447897707315868    0.512872044657401
6.0E9                    0.033202427988269355     0.5115271323644999
