% Model:              cali 5.44 1.83mm.mph
% Version:            COMSOL 5.6.0.280
% Date:               Jul 10 2022, 21:30
% Table:              表格 1 - 全局计算 1
% freq (Hz)              real(emw.S11) (1)        imag(emw.S11) (1)
300000000                0.47775580861532935      -0.8617013387020995
330000000                0.3827533008588052       -0.9046727813967159
360000000                0.2840807631488506       -0.9369717410178309
390000000                0.18296398994287222      -0.9583216908158033
420000000                0.08064198565452774      -0.9685902255762427
450000000                -0.021650304027606284    -0.9677877906951166
480000000                -0.12269853278072916     -0.9560643291078114
510000000                -0.22132448206939098     -0.933704191184679
540000000                -0.31640061056075175     -0.9011197997152138
570000000                -0.4068642390837928      -0.8588442078155695
600000000                -0.49173177854958044     -0.8075213928425863
630000000                -0.5701110795063629      -0.7478929028478046
660000000                -0.6412090119010213      -0.6807829490572477
690000000                -0.7043355925081823      -0.6070858451383225
720000000                -0.7589083418401343      -0.5277557106489486
750000000                -0.8044578053690071      -0.443796024278059
780000000                -0.8406336275674537      -0.35624770115056426
810000000                -0.8672104444621649      -0.2661743514133243
840000000                -0.8840905375975963      -0.17464363789852835
870000000                -0.8912993417212602      -0.08270947932399081
900000000                -0.8889828521132732      0.008596588847480506
930000000                -0.877426308603163       0.09828744307277446
960000000                -0.8570362140453384      0.18550412588706053
990000000                -0.8281880314830841      0.2695242371914424
1020000000               -0.7912073605427349      0.34956788976987724
1050000000               -0.7465617939127961      0.4247840762658053
1080000000               -0.6948868877579762      0.4943966365331835
1110000000               -0.636913325505212       0.5577524689636727
1140000000               -0.5734257132336751      0.6143185555110925
1170000000               -0.505234510586606       0.6636797487015017
1200000000               -0.43314561541283636     0.7055235093799799
1230000000               -0.3579524625896281      0.7396068340170714
1260000000               -0.2804581579600551      0.7657413813020861
1290000000               -0.2014898060519771      0.7838106978746125
1320000000               -0.1218872706993654      0.7937900058165431
1350000000               -0.04248282311731799     0.7957515545457797
1380000000               0.03591604917249125      0.7898607089801537
1410000000               0.1125400726158329       0.7763688863388711
1440000000               0.18666948636626834      0.7556045770881676
1470000000               0.25764309163110916      0.7279620398556759
1500000000               0.3248637643448872       0.6938880035472135
1530000000               0.38779917853623724      0.653867955822134
1560000000               0.4459775142399268       0.6084147955262341
1590000000               0.49898030217454625      0.5580629304614148
1620000000               0.5464370220197738       0.5033685279153519
1650000000               0.5880253208499892       0.4449124239118944
1680000000               0.6234763732551273       0.3833004810489821
1710000000               0.652581277014091        0.3191589475721196
1740000000               0.6751947753461508       0.25312638902082096
1770000000               0.6912355407281372       0.1858452707356656
1800000000               0.7006844938449789       0.11795503370040164
1830000000               0.7035828299690657       0.05008661311634051
1860000000               0.700030381452325        -0.017142564075457566
1890000000               0.6901839718963203       -0.0831338284491175
1920000000               0.6742551527957179       -0.1473128139469505
1950000000               0.6525069989921186       -0.2091349014357586
1980000000               0.625250030538798        -0.2680901207954952
2010000000               0.5928375422493899       -0.3237072688066139
2040000000               0.5556606307349224       -0.37555721032201217
2070000000               0.5141431148812181       -0.423255443460234
2100000000               0.46873645004548053      -0.4664640279710809
2130000000               0.41991468333314724      -0.504892948709978
2.16E9                   0.36816948451092646      -0.5383009570649949
2.19E9                   0.31400529303357827      -0.5664959211558874
2.22E9                   0.25793462746504264      -0.5893347199777735
2.25E9                   0.20047360051988916      -0.6067227282236177
2.28E9                   0.14213767058243132      -0.6186129485941323
2.31E9                   0.08343764288717442      -0.6250048516924293
2.34E9                   0.024875915400657436     -0.6259429786110966
2.37E9                   -0.03305704993021248     -0.6215153490418289
2.4E9                    -0.08988605741517919     -0.6118517008456232
2.43E9                   -0.14515433567335076     -0.5971215691788043
2.46E9                   -0.19842654163157897     -0.5775321982757128
2.49E9                   -0.24929161508794515     -0.5533262699479896
2.52E9                   -0.2973654730981709      -0.524779431241499
2.55E9                   -0.34229351974560096     -0.49219760918234656
2.58E9                   -0.3837529376064258      -0.4559141111248719
2.61E9                   -0.4214547236933281      -0.4162865221496649
2.64E9                   -0.4551454346970677      -0.37369342349207824
2.67E9                   -0.4846086127110956      -0.3285309660793606
2.7E9                    -0.5096658715013888      -0.28120933987425584
2.73E9                   -0.5301776331566453      -0.23214918260271392
2.76E9                   -0.546043514108876       -0.18177797121221334
2.79E9                   -0.5572023672784042      -0.13052643678566303
2.82E9                   -0.5636319930671306      -0.07882503960293614
2.85E9                   -0.5653485360615662      -0.02710053640166117
2.88E9                   -0.5624055869172685      0.024227332751352082
2.91E9                   -0.5548930103057412      0.0747490149041893
2.94E9                   -0.5429355203495022      0.12406815261777247
2.97E9                   -0.5266910249947987      0.17180441418489825
3.0E9                    -0.5063487604784287      0.21759613211897483
3.03E9                   -0.48212723661708357     0.26110273853945193
3.06E9                   -0.45427201322128463     0.30200698779543256
3.09E9                   -0.4230533275724615      0.3400169581506068
3.12E9                   -0.3887635926854359      0.3748678255888378
3.15E9                   -0.35171478594929184     0.40632340400593625
3.18E9                   -0.312235747741085       0.43417744720176804
3.21E9                   -0.2706694096150879      0.4582547093129673
3.24E9                   -0.2273699716943307      0.47841176156385007
3.27E9                   -0.18270004885189872     0.4945375645336565
3.3E9                    -0.13702780518637445     0.5065537964355453
3.33E9                   -0.09072409612468402     0.5144149392643622
3.36E9                   -0.04415963727413868     0.5181081260038519
3.39E9                   0.002297781179827929     0.5176527534537512
3.42E9                   0.04828601610024883      0.5130998666093544
3.45E9                   0.09345121110550086      0.5045313219199853
3.48E9                   0.13745033702127857      0.49205873813792833
3.51E9                   0.17995361644792798      0.4758222448581396
3.54E9                   0.22064681668357056      0.4559890402049598
3.57E9                   0.2592333962516685       0.4327517704149611
3.6E9                    0.2954364914237294       0.4063267453033838
3.63E9                   0.3290007304194582       0.37695200470973445
3.66E9                   0.3596938643941652       0.34488525201626086
3.69E9                   0.3873082058182304       0.31040167166868854
3.72E9                   0.4116618664800605       0.27379164829084457
3.75E9                   0.4325997889776654       0.23535840547682702
3.78E9                   0.4499945672345977       0.19541558264436598
3.81E9                   0.4637470532379519       0.15428476846785497
3.84E9                   0.4737867488143865       0.11229300937326961
3.87E9                   0.4800719828404001       0.06977031141814342
3.9E9                    0.4825898757976912       0.027047153566784596
3.93E9                   0.48135609504251636      -0.01554797002952913
3.96E9                   0.4764144055545904       -0.057690961646757404
3.99E9                   0.4678360222607369       -0.09906446901803108
4.02E9                   0.45571877129370186      -0.13936015599345986
4.05E9                   0.44018606873161875      -0.17828087984214747
4.08E9                   0.4213857264828546       -0.21554276107056924
4.11E9                   0.3994885959812301       -0.25087713258747263
4.14E9                   0.37468706131059903      -0.2840323560391538
4.17E9                   0.34719339421658835      -0.31477549418145134
4.2E9                    0.3172379842410232       -0.342893829273977
4.23E9                   0.28506745788764365      -0.3681962186255912
4.26E9                   0.25094270134847235      -0.39051427960644075
4.29E9                   0.21513680179534855      -0.4097033977114706
4.32E9                   0.17793292267279492      -0.4256435525143492
4.35E9                   0.13962212869972782      -0.4382399576744833
4.38E9                   0.10050117647717159      -0.4474235124732324
4.41E9                   0.0608702866862183       -0.45315106368696684
4.44E9                   0.021030913809476994     -0.4554054779303279
4.47E9                   -0.018716470823041755    -0.4541955259118942
4.5E9                    -0.05807456710766559     -0.44955558135010415
4.53E9                   -0.09675139017433648     -0.4415451385484538
4.56E9                   -0.13446235559125164     -0.43024815386898263
4.59E9                   -0.17093229159415044     -0.4157722175126674
4.62E9                   -0.20589736482582924     -0.3982475631270131
4.65E9                   -0.23910690680471466     -0.37782592382734403
4.68E9                   -0.27032512916401646     -0.35467924417958907
4.71E9                   -0.29933271658053817     -0.3289982586161023
4.74E9                   -0.32592828728019535     -0.30099094756412637
4.77E9                   -0.34992971200419243     -0.2708808833308466
4.8E9                    -0.3711752833904012      -0.2389054784256342
4.83E9                   -0.3895247288461106      -0.20531414958443592
4.86E9                   -0.404860061117447       -0.1703664112199026
4.89E9                   -0.4170862619754325      -0.13432991240174671
4.92E9                   -0.4261317956101185      -0.0974784317348639
4.95E9                   -0.43194894957647095     -0.060089844679296914
4.98E9                   -0.4345140023339685      -0.02244407791620401
5.01E9                   -0.433827217653274       0.015178934665382938
5.04E9                   -0.4299126673760485      0.05250127993643094
5.07E9                   -0.4228178851788582      0.08924906324543319
5.1E9                    -0.4126133551693535      0.12515436202883348
5.13E9                   -0.39939184024770213     0.15995712186164318
5.16E9                   -0.38326755624143954     0.19340698203217416
5.19E9                   -0.36437519885630465     0.22526501829354043
5.22E9                   -0.3428688314436225      0.25530539113676093
5.25E9                   -0.3189206425008544      0.2833168886718255
5.28E9                   -0.2927195826531494      0.30910435402928615
5.31E9                   -0.2644698916409919      0.33248998806549046
5.34E9                   -0.23438952650773948     0.35331451911501666
5.37E9                   -0.2027085028074767      0.37143823249975383
5.4E9                    -0.16966716114834615     0.3867418535583431
5.43E9                   -0.13551437183402334     0.39912727901303563
5.46E9                   -0.10050569068624463     0.40851815259518487
5.49E9                   -0.06490147938959404     0.41486028195542385
5.52E9                   -0.028965003842377258    0.4181218950226871
5.55E9                   0.007039475943509111     0.4182937350957328
5.58E9                   0.042848610886170674     0.41538899508782967
5.61E9                   0.07820184944734195      0.40944309245355204
5.64E9                   0.11284329265118079      0.40051328742744396
5.67E9                   0.1465235046657538       0.38867814827841085
5.7E9                    0.1790012664831231       0.37403686832183825
5.73E9                   0.21004526072506025      0.35670844043015987
5.76E9                   0.2394356761521701       0.3368306957434465
5.79E9                   0.26696572108171657      0.3145592141830318
5.82E9                   0.29244303563828533      0.29006611520922565
5.85E9                   0.3156909935151493       0.2635387380496047
5.88E9                   0.33654988475328945      0.23517822133905908
5.91E9                   0.3548779719365097       0.20519799273673184
5.94E9                   0.37055241311063547      0.17382217966124525
5.97E9                   0.3834700457120196       0.1412839527594104
6.0E9                    0.39354802679017614      0.10782381412369291
