% Model:              three_layers reality at 0.1mm.mph
% Version:            COMSOL 5.6.0.280
% Date:               Feb 28 2022, 20:57
% Table:              表格 1 - 全局计算 1
% freq (Hz)              real(emw.S11) (1)        imag(emw.S11) (1)
300000000                0.5651794447881067       -0.7578080747475548
330000000                0.4934768821998791       -0.8050348708076824
360000000                0.41797345045766454      -0.8456016502664545
390000000                0.3392618363544417       -0.8792004854453168
420000000                0.25796443582150275      -0.9055750692178484
450000000                0.174727868927463        -0.9245240522010061
480000000                0.09021740205159895      -0.9359036741864302
510000000                0.00511127148077204      -0.9396297516296992
540000000                -0.07990508307249851     -0.935679055237139
570000000                -0.16414484778702879     -0.9240900941178967
600000000                -0.24692569581726193     -0.9049633154405088
630000000                -0.32757563761449576     -0.8784607248133324
660000000                -0.40543881607721277     -0.844804932777196
690000000                -0.479881198194382       -0.8042776343352607
720000000                -0.5502961108267161      -0.7572175325884017
750000000                -0.6161095701162831      -0.7040177208050599
780000000                -0.6767853504192793      -0.6451225436309918
810000000                -0.7318297418644503      -0.5810239626731862
840000000                -0.78079594637647        -0.5122574575584369
870000000                -0.8232880641694051      -0.43939749996689337
900000000                -0.8589646277150808      -0.3630526420035436
930000000                -0.8875416427815678      -0.28386026730111935
960000000                -0.9087951026242895      -0.20248105644263387
990000000                -0.9225629467515195      -0.11959322250297827
1020000000               -0.9287464418263709      -0.03588657680069681
1050000000               -0.9273109697279184      0.047943514406276075
1080000000               -0.9182862144292946      0.13120221853709363
1110000000               -0.9017657469740894      0.2132013071748009
1140000000               -0.8779060151349122      0.2932651448560087
1170000000               -0.846924751562437       0.37073653478734336
1200000000               -0.8090988211834464      0.44498236152128
1230000000               -0.764761535302095       0.5153989743086549
1260000000               -0.7142994656076369      0.5814172590353839
1290000000               -0.6581487970682399      0.6425073506671527
1320000000               -0.596791262959221       0.6981829442000266
1350000000               -0.5307497095064976      0.7480051671750151
1380000000               -0.4605833403117132      0.7915859834337771
1410000000               -0.3868826933399815      0.8285911035557343
1440000000               -0.31026440408684036     0.8587423842803947
1470000000               -0.23136580950291377     0.8818197050494305
1500000000               -0.15083944668421623     0.8976623162249808
1530000000               -0.06934749937745757     0.9061696592531073
1560000000               0.012443756202562462     0.9073016645062529
1590000000               0.09386945698191536      0.901078537639868
1620000000               0.1742715638854911       0.8875800498166133
1650000000               0.2530041340289886       0.8669443511561143
1680000000               0.3294384148265735       0.839366330244761
1710000000               0.4029677230133231       0.8050955454951971
1740000000               0.4730120762239629       0.7644337564601552
1770000000               0.5390225478308356       0.7177320851382094
1800000000               0.6004853198843634       0.6653878385963806
1830000000               0.6569254121571593       0.6078410253659438
1860000000               0.7079100692717539       0.5455705983661012
1890000000               0.753051790766693        0.47909045760102426
1920000000               0.7920109924307621       0.408945245639067
1950000000               0.8244982902405887       0.33570596850511614
1980000000               0.8502764011419942       0.25996547399052344
2010000000               0.8691616578030505       0.18233381839938503
2040000000               0.8810251373295988       0.10343355096115368
2070000000               0.8857934063953004       0.023894942862782532
2100000000               0.8834488871450632       -0.05564881580297604
2130000000               0.8740298486084648       -0.13456643297336157
2.16E9                   0.8576300253283112       -0.21223333419496157
2.19E9                   0.8343978558247938       -0.28803647994651294
2.22E9                   0.8045353153832924       -0.3613791780671261
2.25E9                   0.7682962902312156       -0.4316858762898118
2.28E9                   0.7259844137876353       -0.49840687846828813
2.31E9                   0.6779502885649258       -0.5610228511174923
2.34E9                   0.6245880945717546       -0.6190488961824315
2.37E9                   0.5663317563633917       -0.6720379422715288
2.4E9                    0.5036510321260128       -0.7195833495472743
2.43E9                   0.43704791710098123      -0.7613209305784701
2.46E9                   0.3670534926014867       -0.7969308521699915
2.49E9                   0.294224943361038        -0.8261398353675236
2.52E9                   0.21914225083291577      -0.8487237090196551
2.55E9                   0.14240421549858145      -0.8645100032648467
2.58E9                   0.06462379048475918      -0.8733801657731718
2.61E9                   -0.013577054427807413    -0.8752711283774306
2.64E9                   -0.09157267462986365     -0.8701761545268536
2.67E9                   -0.1687391080681925      -0.8581450236459358
2.7E9                    -0.2444593484594189      -0.8392836414608201
2.73E9                   -0.3181284926801662      -0.8137531482836146
2.76E9                   -0.38915874351286855     -0.7817685691446551
2.79E9                   -0.4569842510479279      -0.7435970289776297
2.82E9                   -0.5210657701224756      -0.6995555458505855
2.85E9                   -0.5808951043045767      -0.6500084130622432
2.88E9                   -0.6359993020557232      -0.5953641833124
2.91E9                   -0.6859445680746417      -0.5360722727982081
2.94E9                   -0.7303398523881244      -0.47261920849079914
2.97E9                   -0.7688400809879083      -0.40552454722355136
3.0E9                    -0.8011489941573571      -0.33533650050220243
3.03E9                   -0.8270215623090573      -0.26262730325516276
3.06E9                   -0.8462659531184976      -0.18798836919417936
3.09E9                   -0.8587450289440333      -0.11202527821223485
3.12E9                   -0.8643773586127269      -0.03535264427324266
3.15E9                   -0.8631377335668518      0.04141108647316486
3.18E9                   -0.8550571840943532      0.1176488566237922
3.21E9                   -0.8402224972262694      0.19275018703253913
3.24E9                   -0.8187752433745085      0.26611628538003107
3.27E9                   -0.7909103238799897      0.3371650258902612
3.3E9                    -0.7568740561650928      0.40533575444095127
3.33E9                   -0.7169618170706202      0.470093875798534
3.36E9                   -0.6715152685611258      0.530935181770397
3.39E9                   -0.6209191931307345      0.5873898815833031
3.42E9                   -0.5655979695270403      0.6390262976867683
3.45E9                   -0.5060117230592677      0.6854541921667062
3.48E9                   -0.44265218894044783     0.7263276911802881
3.51E9                   -0.3760383319134548      0.7613477778984049
3.54E9                   -0.306711770982201       0.7902643286476154
3.57E9                   -0.23523206308110467     0.8128776734120049
3.6E9                    -0.1621719038944292      0.8290396701620062
3.63E9                   -0.08811230575113171     0.8386542927270212
3.66E9                   -0.013637811611615192    0.8416777426617039
3.69E9                   0.060668200058498024     0.8381181056929627
3.72E9                   0.13422807097910924      0.8280345816397349
3.75E9                   0.2064742383769289       0.811536323082142
3.78E9                   0.2768533972408365       0.7887809229290644
3.81E9                   0.34483042616305454      0.7599725947664369
3.84E9                   0.4098920649518757       0.7253600915172803
3.87E9                   0.4715503451226168       0.6852344055660397
3.9E9                    0.5293457870298219       0.6399262848992843
3.93E9                   0.582850385073482        0.5898035850196294
3.96E9                   0.6316704015086434       0.5352684585874256
3.99E9                   0.6754489785156313       0.47675436955260664
4.02E9                   0.7138685602864889       0.41472291177999265
4.05E9                   0.7466530979464459       0.34966041624878264
4.08E9                   0.7735699962910929       0.28207434495736494
4.11E9                   0.7944317569870685       0.21248948842458204
4.14E9                   0.8090972783669831       0.1414440016197873
4.17E9                   0.8174727847369859       0.06948532570028859
4.2E9                    0.8195123741022879       -0.0028339524220500345
4.23E9                   0.8152181880461807       -0.07496025325631182
4.26E9                   0.8046402181467229       -0.14634312967120744
4.29E9                   0.7878757680904513       -0.21643933255443396
4.32E9                   0.7650685899338581       -0.28471679602731065
4.35E9                   0.736407708460418        -0.3506585267558689
4.38E9                   0.7021259418606448       -0.41376638375614183
4.41E9                   0.6624981225950002       -0.47356473272708
4.44E9                   0.6178390206802519       -0.5296039547031065
4.47E9                   0.5685009732414351       -0.5814637839758666
4.5E9                    0.5148712282347587       -0.6287564468599713
4.53E9                   0.45736901587679846      -0.671129571278508
4.56E9                   0.39644236728131743      -0.7082688379741408
4.59E9                   0.33256470543729577      -0.7399003469717639
4.62E9                   0.2662312380267059       -0.765792677646817
4.65E9                   0.19795518388402372      -0.7857586268099352
4.68E9                   0.12826386462815514      -0.7996566153587877
4.71E9                   0.05769468982343398      -0.8073917589293154
4.74E9                   -0.013208940410595461    -0.8089165996964603
4.77E9                   -0.0839017955397333      -0.8042314945250214
4.8E9                    -0.1538410181697918      -0.793384649857976
4.83E9                   -0.22249034797623166     -0.7764717887595797
4.86E9                   -0.289324334458823       -0.7536354335076559
4.89E9                   -0.35383249727973215     -0.7250637903013134
4.92E9                   -0.4155233843720268      -0.6909892313166692
4.95E9                   -0.4739284738424841      -0.6516863819091352
4.98E9                   -0.5286058671735874      -0.6074698345919203
5.01E9                   -0.5791437280448032      -0.5586915239583056
5.04E9                   -0.6251634325944749      -0.5057378054650238
5.07E9                   -0.6663224108704983      -0.449026284189426
5.1E9                    -0.7023166727469944      -0.3890024364257769
5.13E9                   -0.7328830213878826      -0.3261360574069405
5.16E9                   -0.7578009595138395      -0.2609175557171425
5.19E9                   -0.7768942872118221      -0.19385410368387337
5.22E9                   -0.790032376574059       -0.12546564974495297
5.25E9                   -0.7971310949573351      -0.05628080660980217
5.28E9                   -0.7981533429716436      0.013167353567142196
5.31E9                   -0.7931091808094062      0.0823455462652894
5.34E9                   -0.7820555357812622      0.15072450123493364
5.37E9                   -0.7650955071314018      0.21778310763357933
5.4E9                    -0.7423773016638298      0.2830124308625987
5.43E9                   -0.7140928391842323      0.3459195743667103
5.46E9                   -0.6804760602905925      0.4060313767322999
5.49E9                   -0.6418009556955392      0.46289794285143115
5.52E9                   -0.598379322541965       0.5160960064184973
5.55E9                   -0.5505582441417846      0.565232112116316
5.58E9                   -0.49871728750723343     0.6099455934762162
5.61E9                   -0.4432654181265891      0.6499113101561598
5.64E9                   -0.3846376428223257      0.6848420991142168
5.67E9                   -0.3232914076475196      0.7144908904800659
5.7E9                    -0.2597027964866479      0.7386524431195511
5.73E9                   -0.1943625926013052      0.75716466898024
5.76E9                   -0.1277722739589043      0.7699095378333242
5.79E9                   -0.060440008418103736    0.7768135791741488
5.82E9                   0.007123303258301128     0.7778480163735276
5.85E9                   0.07440791249892786      0.7730285720581271
5.88E9                   0.14090903117716833      0.7624149729083082
5.91E9                   0.2061305642233295       0.7461101641104995
5.94E9                   0.26958876077483007      0.724259228795293
5.97E9                   0.33081576462566975      0.697048002444355
6.0E9                    0.38936303163397634      0.6647013767537184
