% Model:              three_layers reality at 0.1mm.mph
% Version:            COMSOL 5.6.0.280
% Date:               Mar 11 2022, 09:15
% Table:              表格 1 - 全局计算 1
% freq (Hz)              real(emw.S11) (1)        imag(emw.S11) (1)
300000000                0.5721901789347837       -0.76320163305218
330000000                0.4999013543331676       -0.8113265958643195
360000000                0.42370527596550256      -0.8526980990525849
390000000                0.34421070067259835      -0.8870027272278787
420000000                0.2620545424294822       -0.9139796370029274
450000000                0.17789695260047883      -0.933423746707841
480000000                0.09241610875713119      -0.9451883293354509
510000000                0.0063027660118773815    -0.9491870156621529
540000000                -0.07974537860439349     -0.9453952109496218
570000000                -0.16502945323258303     -0.9338509248280564
600000000                -0.2488552584686552      -0.9146550141029991
630000000                -0.3305391396747087      -0.8879708383168021
660000000                -0.4094138283736779      -0.8540233306266999
690000000                -0.4848341984831085      -0.8130974890675855
720000000                -0.5561828781919146      -0.7655362986940353
750000000                -0.6228756630119435      -0.7117380985009145
780000000                -0.6843666722585171      -0.6521534139966931
810000000                -0.7401531951145628      -0.5872812806905735
840000000                -0.7897801731190008      -0.5176650906315688
870000000                -0.8328442694162899      -0.4438879996765314
900000000                -0.8689974794017226      -0.36656793815858446
930000000                -0.8979502407956267      -0.2863522743065088
960000000                -0.9194740079536395      -0.2039121829113748
990000000                -0.9334032602023763      -0.11993677715203246
1020000000               -0.9396369212579364      -0.03512706402138132
1050000000               -0.9381391735758975      0.049810213277073995
1080000000               -0.9289396590170507      0.1341687814453242
1110000000               -0.9121330646963902      0.21724902612924657
1140000000               -0.8878781005824337      0.298364099049269
1170000000               -0.8563958827958976      0.3768458799531142
1200000000               -0.8179677437707812      0.4520507320758985
1230000000               -0.7729324972372853      0.52336499334188
1260000000               -0.7216831920863366      0.5902101497560225
1290000000               -0.6646633949146619      0.652047641880676
1320000000               -0.6023630456095601      0.7083832611899205
1350000000               -0.5353139345844385      0.7587710985465812
1380000000               -0.4640848530870552      0.8028170137397779
1410000000               -0.3892764705942249      0.8401816010262927
1440000000               -0.3115159943444299      0.8705826325320628
1470000000               -0.23145166675366946     0.8937969675870054
1500000000               -0.14974715607876732     0.9096619224518592
1530000000               -0.06707589467617812     0.9180761008554742
1560000000               0.015884582626239308     0.9189996914020766
1590000000               0.09845824959580601      0.9124542430354206
1620000000               0.17997610187072743      0.8985219344297477
1650000000               0.2597815278633508       0.8773443572753128
1680000000               0.33723549671082653      0.8491208369488071
1710000000               0.4117215260209838       0.8141063170389897
1740000000               0.4826503960907134       0.772608836624007
1770000000               0.5494645810303592       0.7249866310822322
1800000000               0.6116423711352557       0.6716448885486271
1830000000               0.6687016642081041       0.613032195306842
1860000000               0.7202034075234942       0.5496367036841445
1890000000               0.7657546751405481       0.4819820565788902
1920000000               0.8050113687617672       0.41062310254943973
1950000000               0.8376805334867257       0.3361414352097556
1980000000               0.8635222829113339       0.25914079017428054
2010000000               0.8823513313780137       0.18024233186612718
2040000000               0.8940381345163271       0.10007986124925315
2070000000               0.8985096429789359       0.019294972920405107
2100000000               0.8957496778853771       -0.061467814074736796
2130000000               0.8857989392561255       -0.14156593448861207
2.16E9                   0.8687546581213422       -0.22036365860205887
2.19E9                   0.8447698939224779       -0.2972369876084419
2.22E9                   0.814052452804308        -0.3715785887227245
2.25E9                   0.776863350636744        -0.44280279633098535
2.28E9                   0.7335146714800473       -0.5103506567592596
2.31E9                   0.6843666245957487       -0.5736948555211229
2.34E9                   0.6298236919948803       -0.6323441470135429
2.37E9                   0.5703300932748334       -0.6858467654762649
2.4E9                    0.5063652662265558       -0.7337925263239311
2.43E9                   0.438440202649659        -0.7758140156809081
2.46E9                   0.36709488460960443      -0.8115878912081614
2.49E9                   0.29289611974450835      -0.8408371427599575
2.52E9                   0.2164347101506664       -0.8633342596939104
2.55E9                   0.13832140036481153      -0.8789045243950592
2.58E9                   0.05918178733788864      -0.8874286583115915
2.61E9                   -0.02034929098209677     -0.8888444952846923
2.64E9                   -0.09963345794125865     -0.8831477386839661
2.67E9                   -0.17803437917579182     -0.870391993159725
2.7E9                    -0.25492316603516624     -0.850688233863311
2.73E9                   -0.3296836076783114      -0.8242038056598985
2.76E9                   -0.40171724387680696     -0.7911609907852477
2.79E9                   -0.47044827593718586     -0.7518351559528234
2.82E9                   -0.535328296975259       -0.7065524813507679
2.85E9                   -0.5958408110445891      -0.6556872755313194
2.88E9                   -0.6515055042180204      -0.59965888566333
2.91E9                   -0.70188222775479        -0.5389282195629334
2.94E9                   -0.7465746535461388      -0.4739939025484481
2.97E9                   -0.7852335636876715      -0.40538809836395845
3.0E9                    -0.8175597389136313      -0.3336720289924661
3.03E9                   -0.8433064145725535      -0.25943123287985065
3.06E9                   -0.8622812772792416      -0.18327060541241402
3.09E9                   -0.8743479807085284      -0.1058092685596303
3.12E9                   -0.8794271644967347      -0.027675319406214118
3.15E9                   -0.8774969662984031      0.05049949126108642
3.18E9                   -0.8685930231388561      0.1280850984861818
3.21E9                   -0.852807964265767       0.2044584291546403
3.24E9                   -0.8302904034778038      0.2790086243226899
3.27E9                   -0.8012434441108355      0.3511421296462407
3.3E9                    -0.7659227142718491      0.4202876086129164
3.33E9                   -0.724633953548917       0.4859006359924
3.36E9                   -0.6777301750665136      0.5474681321735108
3.39E9                   -0.6256084288737267      0.6045125012420938
3.42E9                   -0.5687061942236992      0.6565954376632965
3.45E9                   -0.5074974302887579      0.7033213669789078
3.48E9                   -0.4424883174826322      0.744340486024432
3.51E9                   -0.37421272595215316     0.7793513676239515
3.54E9                   -0.3032274545802988      0.8081030947011189
3.57E9                   -0.23010729254873735     0.8303968910487172
3.6E9                    -0.15543996620857536     0.8460872216288987
3.63E9                   -0.07982104378874838     0.8550823460002559
3.66E9                   -0.003848877861715572    0.8573443238103735
3.69E9                   0.07188033241936331      0.8528884903458375
3.72E9                   0.14677728171964652      0.8417824405435737
3.75E9                   0.2202640351721831       0.8241445794082147
3.78E9                   0.29177819324065946      0.8001423132554996
3.81E9                   0.3607767219594171       0.7699899668075679
3.84E9                   0.42673945656746215      0.733946511840613
3.87E9                   0.4891723184275247       0.6923131793280128
3.9E9                    0.5476103094028979       0.6454309972693979
3.93E9                   0.6016203546046608       0.5936782554040327
3.96E9                   0.6508040479130973       0.5374678576088331
3.99E9                   0.6948003181112871       0.47724449717960166
4.02E9                   0.7332879890219957       0.4134815888516249
4.05E9                   0.7659881703024141       0.34667791350640675
4.08E9                   0.7926663970957734       0.27735396809752666
4.11E9                   0.8131344397435314       0.2060480509510212
4.14E9                   0.8272517240075736       0.13331214083913703
4.17E9                   0.8349263292748393       0.0597076422990889
4.2E9                    0.8361155588960291       -0.01419893020331709
4.23E9                   0.8308260976125578       -0.08784026682041504
4.26E9                   0.8191137831878831       -0.16065252863480578
4.29E9                   0.8010830227523155       -0.23207953529321565
4.32E9                   0.776885880417612        -0.30157685681560864
4.35E9                   0.7467208543953128       -0.3686158004610721
4.38E9                   0.7108313525681489       -0.4326872851625064
4.41E9                   0.6695038682286093       -0.4933055926839238
4.44E9                   0.6230658543040068       -0.5500119783154032
4.47E9                   0.5718832951781447       -0.6023781169775021
4.5E9                    0.5163579793234438       -0.6500093550264842
4.53E9                   0.4569244822151028       -0.6925477346646224
4.56E9                   0.3940468765228907       -0.7296747568854658
4.59E9                   0.328215194133319        -0.7611138509178557
4.62E9                   0.2599416716051227       -0.7866325228433214
4.65E9                   0.18975681536193428      -0.8060441637368418
4.68E9                   0.1182053238053312       -0.8192095069274302
4.71E9                   0.04584189936497829      -0.8260377324269927
4.74E9                   -0.026773024725414984    -0.8264872207660174
4.77E9                   -0.09907762746238227     -0.8205659558861076
4.8E9                    -0.17051310260889105     -0.8083315672227033
4.83E9                   -0.24052810732968394     -0.7898909882963812
4.86E9                   -0.3085832307990134      -0.7653996988106568
4.89E9                   -0.3741554368071473      -0.7350605151827857
4.92E9                   -0.43674241314872486     -0.6991219038445465
4.95E9                   -0.4958667439158593      -0.6578758123741764
4.98E9                   -0.5510798144020245      -0.6116550424475645
5.01E9                   -0.6019653658733379      -0.5608302203389214
5.04E9                   -0.6481426399853851      -0.505806448368517
5.07E9                   -0.6892690883633062      -0.4470197357359263
5.1E9                    -0.7250426638760111      -0.38493330254290986
5.13E9                   -0.7552037442330379      -0.3200338235972517
5.16E9                   -0.7795367513637885      -0.25282763529671043
5.19E9                   -0.7978715132382984      -0.1838368856199981
5.22E9                   -0.8100843729028248      -0.11359558507217477
5.25E9                   -0.8160990023823822      -0.04264552835268909
5.28E9                   -0.8158868521868542      0.028467900466796883
5.31E9                   -0.8094671775970991      0.09919997514396839
5.34E9                   -0.7969066267506388      0.1690108310949488
5.37E9                   -0.7783184297869856      0.23736953622552717
5.4E9                    -0.753861264524708       0.30375797895371637
5.43E9                   -0.723737875536378       0.36767457562210026
5.46E9                   -0.6881934926622704      0.4286378381896905
5.49E9                   -0.6475140494037801      0.48618985307343277
5.52E9                   -0.6020241617771772      0.5398997032890528
5.55E9                   -0.5520848076609451      0.5893668296409861
5.58E9                   -0.49809064868092606     0.634224286820783
5.61E9                   -0.4404669572415274      0.6741418173372805
5.64E9                   -0.37966614446344593     0.7088286456148465
5.67E9                   -0.31616392503915947     0.7380358895045233
5.7E9                    -0.2504551970894622      0.7615584997579649
5.73E9                   -0.18304975003002913     0.7792366722473658
5.76E9                   -0.1144679282115007      0.7909567296256796
5.79E9                   -0.0452363613711718      0.7966515246771573
5.82E9                   0.024116174385307332     0.7963004545501929
5.85E9                   0.09306276081775718      0.789929175730408
5.88E9                   0.16108224738652838      0.7776090743283938
5.91E9                   0.2276631179101589       0.7594564945864175
5.94E9                   0.2923073427301853       0.7356316859106223
5.97E9                   0.35453420538888203      0.7063374109492953
6.0E9                    0.41388405426087194      0.671817164522074
