% Model:              three_layers reality at 0.1mm.mph
% Version:            COMSOL 5.6.0.280
% Date:               Feb 28 2022, 20:54
% Table:              表格 1 - 全局计算 1
% freq (Hz)              real(emw.S11) (1)        imag(emw.S11) (1)
300000000                0.5690510678620972       -0.7610026911621953
330000000                0.4969926640319267       -0.8087272808998294
360000000                0.42107508706358243      -0.8497361923603601
390000000                0.3419002230892346       -0.8837186653593577
420000000                0.26009880421331605      -0.910416066188186
450000000                0.17632523931672317      -0.929625160625225
480000000                0.09125223850114708      -0.9412007358531304
510000000                0.00556525955871674      -0.9450576047573389
540000000                -0.0800431897955182      -0.9411720102171099
570000000                -0.1648793510953869      -0.929582437597357
600000000                -0.2482540735641334      -0.9103898396150149
630000000                -0.3294886804069231      -0.8837572762849301
660000000                -0.4079207947742985      -0.8499089737076035
690000000                -0.48291007033045424     -0.8091288083099102
720000000                -0.5538437733683765      -0.761758226790525
750000000                -0.6201421615310498      -0.7081936165398761
780000000                -0.6812636038951497      -0.6488831471103399
810000000                -0.7367093898331061      -0.5843231080945016
840000000                -0.7860281742699468      -0.5150537755148282
870000000                -0.8288200112066427      -0.4416548437403998
900000000                -0.8647399302450703      -0.3647404660090859
930000000                -0.8935010156600118      -0.28495395166563586
960000000                -0.9148769528435162      -0.20296217298818828
990000000                -0.9287040129284954      -0.11944973823565089
1020000000               -0.9348824527699717      -0.035112991504013764
1050000000               -0.9333773147532161      0.049346098496130295
1080000000               -0.9242186179113663      0.13322609627362034
1110000000               -0.9075009395255847      0.21583223951791233
1140000000               -0.8833823937832277      0.29648249681929806
1170000000               -0.8520830214477977      0.37451348057021266
1200000000               -0.8138826116342073      0.4492861543466938
1230000000               -0.7691179834658766      0.5201912776279395
1260000000               -0.7181797613462853      0.5866545350461226
1290000000               -0.6615086834015911      0.6481413013051984
1320000000               -0.5995914870147435      0.704160999220243
1350000000               -0.5329564195925655      0.7542710135333689
1380000000               -0.4621684256183263      0.798080129629489
1410000000               -0.38782406332990044     0.835251472568387
1440000000               -0.3105462057047052      0.8655049283027548
1470000000               -0.23097858089039436     0.8886190353889163
1500000000               -0.14978020686844237     0.9044323416686848
1530000000               -0.06761977436695865     0.9128442262962775
1560000000               0.014829970197927268     0.9138151931660193
1590000000               0.09689779150292353      0.9073666467358539
1620000000               0.17791943527637902      0.893580166011708
1650000000               0.25724295700087174      0.8725962964027453
1680000000               0.33423386939584887      0.8446128827130961
1710000000               0.408280071451053        0.8098829694995309
1740000000               0.47879652627914826      0.7687122973369733
1770000000               0.5452296581751458       0.7214564255569291
1800000000               0.6070614437181213       0.6685175131510702
1830000000               0.6638131745813602       0.6103407908521957
1860000000               0.7150488741387453       0.5474107574617546
1890000000               0.7603783524489889       0.4802471342810754
1920000000               0.7994598882034041       0.4094006108269575
1950000000               0.8320025287557901       0.335448415079187
1980000000               0.8577680026956547       0.2589897405269003
2010000000               0.8765722421601851       0.18064106138678832
2040000000               0.8882865150247089       0.10103136557676812
2070000000               0.8928381696355658       0.020797332823709574
2100000000               0.8902109968458117       -0.05942151883657672
2130000000               0.8804452144264833       -0.13898769966436034
2.16E9                   0.8636370760902725       -0.21727061698856406
2.19E9                   0.8399380981172098       -0.2936514419289064
2.22E9                   0.8095538780159007       -0.36752797261399484
2.25E9                   0.772742451128563        -0.4383194805685835
2.28E9                   0.7298121029054777       -0.505471485165195
2.31E9                   0.6811185553975211       -0.5684603219727763
2.34E9                   0.6270615235630587       -0.6267972755876672
2.37E9                   0.5680808123009117       -0.6800320188912211
2.4E9                    0.5046523254272518       -0.7277552427339559
2.43E9                   0.437284394973015        -0.7696006753632019
2.46E9                   0.366514577073351        -0.805246967299558
2.49E9                   0.2929066390960195       -0.83441987787374
2.52E9                   0.217047233251232        -0.856894832206211
2.55E9                   0.13954189335590428      -0.8724995347182717
2.58E9                   0.061010327807016124     -0.8811162118283807
2.61E9                   -0.01791877203246486     -0.8826832005195862
2.64E9                   -0.0966131387656084      -0.8771958069098951
2.67E9                   -0.17444235493362614     -0.8647064894496309
2.7E9                    -0.2507831945407674      -0.8453244570298836
2.73E9                   -0.32502483598172643     -0.8192147558454208
2.76E9                   -0.39657392691746907     -0.7865968905005043
2.79E9                   -0.4648594837920329      -0.7477430036768928
2.82E9                   -0.5293376033271738      -0.7029756280187577
2.85E9                   -0.5894959559826836      -0.6526650216390039
2.88E9                   -0.6448580268705388      -0.5972261007825924
2.91E9                   -0.694987066575695       -0.5371149880039123
2.94E9                   -0.7394897141414245      -0.4728251994754893
2.97E9                   -0.7780192554397927      -0.4048835007508787
3.0E9                    -0.8102784828530283      -0.33384546531668996
3.03E9                   -0.8360221256117033      -0.26029077499812486
3.06E9                   -0.8550588244181383      -0.18481830548684905
3.09E9                   -0.8672526291098118      -0.10804104332697902
3.12E9                   -0.8725240034560487      -0.030580883454305315
3.15E9                   -0.8708503270432953      0.04693664193132785
3.18E9                   -0.8622658902172171      0.12388765186225932
3.21E9                   -0.8468613838848719      0.19965517107145947
3.24E9                   -0.8247828916402238      0.27363430023968266
3.27E9                   -0.7962303968475218      0.34523725348967266
3.3E9                    -0.7614558218702636      0.4138982168479869
3.33E9                   -0.7207606205923408      0.47907798389617123
3.36E9                   -0.6744929489509485      0.5402683270856592
3.39E9                   -0.6230444412998134      0.5969960657722705
3.42E9                   -0.5668466237223022      0.6488267938471632
3.45E9                   -0.5063669990068969      0.6953682318746127
3.48E9                   -0.44210484209157086     0.7362731709249428
3.51E9                   -0.3745867497840711      0.7712419780875923
3.54E9                   -0.30436199411046644     0.8000246379667213
3.57E9                   -0.2319977338729583      0.8224223108491664
3.6E9                    -0.15807414367436828     0.838288396570802
3.63E9                   -0.08317952151579924     0.8475291036127381
3.66E9                   -0.007905435391427674    0.8501035339476634
3.69E9                   0.06715803491647136      0.8460233046886189
3.72E9                   0.14142691095065416      0.8353517362587399
3.75E9                   0.21432774155586928      0.818202643534341
3.78E9                   0.28530180814655637      0.7947387715677171
3.81E9                   0.3538090854925926       0.765169921469473
3.84E9                   0.41933194622035264      0.7297508138054808
3.87E9                   0.4813786107637892       0.6887787344898979
3.9E9                    0.5394863578005323       0.6425909992325574
3.93E9                   0.5932245184281385       0.5915622571752569
3.96E9                   0.642197276522148        0.5361016356913104
3.99E9                   0.6860462866071342       0.4766497122709106
4.02E9                   0.7244531019648843       0.4136752919783653
4.05E9                   0.7571413858385146       0.3476719729491096
4.08E9                   0.7838788639491949       0.2791544967153039
4.11E9                   0.8044789717112867       0.20865489948434163
4.14E9                   0.818802154858389        0.13671849928317076
4.17E9                   0.8267567952401148       0.06389976690297595
4.2E9                    0.8282997499522016       -0.009241866237845293
4.23E9                   0.823436507338067        -0.08214621282977273
4.26E9                   0.8122209744663682       -0.1542565049119592
4.29E9                   0.7947549157809999       -0.22502350795342002
4.32E9                   0.7711870619789934       -0.29390955219663223
4.35E9                   0.7417119035554486       -0.36039246580294837
4.38E9                   0.7065681775559665       -0.4239693961839038
4.41E9                   0.6660370514057313       -0.4841605038325065
4.44E9                   0.6204400059152584       -0.5405125082979607
4.47E9                   0.5701364210725742       -0.5926020611283372
4.5E9                    0.5155208722858307       -0.6400389169213266
4.53E9                   0.45702015055198         -0.6824688718501796
4.56E9                   0.3950900261256573       -0.7195764397881319
4.59E9                   0.3302117811662175       -0.7510872389118209
4.62E9                   0.26288854142921425      -0.7767700664954514
4.65E9                   0.19364143955168311      -0.7964386458281744
4.68E9                   0.1230056423238633       -0.8099530355980978
4.71E9                   0.05152627107313919      -0.8172206972394689
4.74E9                   -0.02024576036961392     -0.8181972176557711
4.77E9                   -0.09175797000739756     -0.8128866827611159
4.8E9                    -0.16246057496314992     -0.8013416923074047
4.83E9                   -0.231810778616369       -0.783663001124907
4.86E9                   -0.29927704583652215     -0.7599987695783758
4.89E9                   -0.36434332438130873     -0.7305434090337036
4.92E9                   -0.4265131613862148      -0.6955360169552178
4.95E9                   -0.48531365940567134     -0.6552584092061173
4.98E9                   -0.5402992175875861      -0.6100327716070197
5.01E9                   -0.5910550105988959      -0.5602189660395688
5.04E9                   -0.6372001697773557      -0.5062115357649513
5.07E9                   -0.6783906456608957      -0.4484364582510678
5.1E9                    -0.714321745437489       -0.3873476905408673
5.13E9                   -0.7447303494795305      -0.32342354217999497
5.16E9                   -0.769396813706369       -0.2571628972369649
5.19E9                   -0.7881465579548923      -0.18908129465561074
5.22E9                   -0.8008513263822948      -0.11970687222602892
5.25E9                   -0.8074300914313581      -0.049576187271307776
5.28E9                   -0.8078495664857398      0.0207700548777369
5.31E9                   -0.8021242996986594      0.09079131289853874
5.34E9                   -0.7903163414347465      0.15995149751447837
5.37E9                   -0.7725345021043597      0.22772317239039874
5.4E9                    -0.7489332356872129      0.2935916196210802
5.43E9                   -0.7197111902039549      0.3570587426624883
5.46E9                   -0.6851094596382071      0.4176467978104335
5.49E9                   -0.6454095576629122      0.4749019544271416
5.52E9                   -0.6009311187879067      0.5283976827856848
5.55E9                   -0.5520293226155939      0.5777379591334068
5.58E9                   -0.49909203436648203     0.6225602643813976
5.61E9                   -0.4425366598245491      0.6625383397750216
5.64E9                   -0.38280672453565273     0.6973846528496224
5.67E9                   -0.3203682039961061      0.7268525226252751
5.7E9                    -0.25570565121490996     0.7507378570865795
5.73E9                   -0.18931818570356607     0.7688804704158174
5.76E9                   -0.12171541735048806     0.7811649709818058
5.79E9                   -0.05341337385415184     0.787521237648224
5.82E9                   0.015069518394984095     0.7879245214423847
5.85E9                   0.08321637549482085      0.782395214020343
5.88E9                   0.15051571513947692      0.7709983130671212
5.91E9                   0.2164652363504251       0.7538425956877586
5.94E9                   0.2805755153896589       0.7310794947797132
5.97E9                   0.3423735990842005       0.7029016673082966
6.0E9                    0.40140646292381565      0.6695412478189438
