% Model:              three_layers reality at 0.1mm.mph
% Version:            COMSOL 5.6.0.280
% Date:               Mar 8 2022, 10:29
% Table:              表格 1 - 全局计算 1
% freq (Hz)              real(emw.S11) (1)        imag(emw.S11) (1)
300000000                0.4360250065556434       -0.8212947459672835
330000000                0.34672419268989607      -0.8601665597625662
360000000                0.25423188813573266      -0.8895363405674015
390000000                0.15951547216092         -0.9091541198359583
420000000                0.06356812192455692      -0.9188658599956945
450000000                -0.03260236271419483     -0.9186172957609288
480000000                -0.12798489335368474     -0.9084560753158046
510000000                -0.2215764377206754      -0.8885323493451964
540000000                -0.31239323699858695     -0.8590979199960587
570000000                -0.39948176739049457     -0.8205040419386326
600000000                -0.4819293228505201      -0.7731979588850493
630000000                -0.5588741014787613      -0.7177182568799817
660000000                -0.6295146847974888      -0.6546891178077103
690000000                -0.6931188053574383      -0.5848135616005413
720000000                -0.7490313068106247      -0.5088657716360995
750000000                -0.7966812095363167      -0.42768260449248646
780000000                -0.8355878050687324      -0.3421543921813648
810000000                -0.8653657141610671      -0.25321515093530816
840000000                -0.8857288554588559      -0.1618323158082166
870000000                -0.8964932846693756      -0.06899612451084408
900000000                -0.8975788775569508      0.024291222827555026
930000000                -0.8890098440311349      0.11702650051781548
960000000                -0.8709140744139303      0.20821636294160353
990000000                -0.8435213329358224      0.29688809271900446
1020000000               -0.8071603270285309      0.3821000685641057
1050000000               -0.7622546941716796      0.46295183427737135
1080000000               -0.7093179603757003      0.5385936567239232
1110000000               -0.6489475361488255      0.6082354675868092
1140000000               -0.5818178261662876      0.6711550927082953
1170000000               -0.508672538623612       0.7267056820200216
1200000000               -0.4303162881802883      0.7743222640181588
1230000000               -0.3476055935789701      0.813527359664759
1260000000               -0.26143937640719933     0.8439356026650118
1290000000               -0.17274907159594532     0.8652573252066191
1320000000               -0.08248846303285334     0.8773010806946249
1350000000               0.008376641221372693     0.8799750875294946
1380000000               0.09887877953303015      0.8732875902880958
1410000000               0.18805914015517047      0.8573461468084901
1440000000               0.27497768704578135      0.8323558613171426
1470000000               0.3587230017082414       0.7986165948926964
1500000000               0.43842173925058214      0.7565191950730326
1530000000               0.5132476031464588       0.7065407961505583
1560000000               0.5824297496813617       0.6492392506757682
1590000000               0.6452605407196814       0.5852467607826508
1620000000               0.7011025716292043       0.5152627850763476
1650000000               0.7493949098438606       0.44004630313991444
1680000000               0.7896584888853497       0.36040752483111593
1710000000               0.821500612056585        0.2771991360177506
1740000000               0.8446185300395946       0.19130717546216092
1770000000               0.85880206659543         0.1036416399802142
1800000000               0.863935276803278        0.015126916300817646
1830000000               0.8599971326978242       -0.07330786197597161
1860000000               0.8470612415017023       -0.16073843460265552
1890000000               0.8252946121571381       -0.2462549167454939
1920000000               0.7949554962222266       -0.3289710912406702
1950000000               0.7563903393990139       -0.4080334046696109
1980000000               0.710029889561504        -0.48262958888989954
2010000000               0.6563845154697554       -0.5519968402056036
2040000000               0.5960387959926816       -0.6154295028152537
2070000000               0.5296454400145075       -0.672286221789613
2100000000               0.4579185876358185       -0.7219965533269815
2130000000               0.3816265172770978       -0.7640670424501933
2.16E9                   0.3015837322399879       -0.7980867906058386
2.19E9                   0.21864231923283325      -0.8237325149146897
2.22E9                   0.13368237194081659      -0.8407730078090716
2.25E9                   0.047601209057391715     -0.8490726929794961
2.28E9                   -0.03869878582495776     -0.8485936287068528
2.31E9                   -0.12432343473047514     -0.839394954431723
2.34E9                   -0.20840001409609307     -0.821628768401946
2.37E9                   -0.2900883971507673      -0.795532254538384
2.4E9                    -0.36858787723963976     -0.7614176220930017
2.43E9                   -0.4431390207927741      -0.7196630719885428
2.46E9                   -0.5130226334895598      -0.6707078459921731
2.49E9                   -0.5775596817157783      -0.6150519225348758
2.52E9                   -0.636115095504012       -0.5532579367194924
2.55E9                   -0.6881056306651265      -0.4859518560809239
2.58E9                   -0.7330097627530503      -0.41382022848561495
2.61E9                   -0.7703772081351441      -0.33760383685223183
2.64E9                   -0.799836574828789       -0.25808884360327417
2.67E9                   -0.8211007212648611      -0.1760967071231093
2.7E9                    -0.8339700435031869      -0.0924737878054701
2.73E9                   -0.8383341053408494      -0.00808112279440861
2.76E9                   -0.8341719769731614      0.07621544931414986
2.79E9                   -0.8215515303449321      0.15955477596192993
2.82E9                   -0.8006278367769929      0.24108949608114805
2.85E9                   -0.7716407467031345      0.31999476660208304
2.88E9                   -0.7349116976374636      0.3954765947775496
2.91E9                   -0.6908397838679274      0.4667797435072505
2.94E9                   -0.6398971209026848      0.5331951632289259
2.97E9                   -0.5826235430655402      0.5940668967199313
3.0E9                    -0.5196206805684865      0.6487984002957359
3.03E9                   -0.45154547094553377     0.6968582260192437
3.06E9                   -0.37910316784017173     0.737785013548522
3.09E9                   -0.3030399172181798      0.771191746591134
3.12E9                   -0.22413497676137686     0.7967692368838142
3.15E9                   -0.14319265794058006     0.8142888078715962
3.18E9                   -0.06103407192160973     0.8236041599354774
3.21E9                   0.021511240285101787     0.8246524084581367
3.24E9                   0.10361371565333784      0.8174542941051937
3.27E9                   0.184452141276992        0.8021135707138044
3.3E9                    0.26322192118033155      0.7788155794889926
3.33E9                   0.33914317100891406      0.7478250189931528
3.36E9                   0.41146857367760376      0.7094829194855955
3.39E9                   0.4794909250734863       0.6642028292237676
3.42E9                   0.5425502908054599       0.6124662214966601
3.45E9                   0.6000406833178502       0.5548171370516249
3.48E9                   0.6514161557076407       0.4918560895616628
3.51E9                   0.6961961977928439       0.4242332833684705
3.54E9                   0.7339703159658676       0.35264122281526983
3.57E9                   0.7644016862299431       0.2778068279841876
3.6E9                    0.7872297925939034       0.20048320676756326
3.63E9                   0.8022720004552938       0.12144126029823164
3.66E9                   0.8094240617333217       0.041461311053053534
3.69E9                   0.8086595972867369       -0.03867506209292547
3.72E9                   0.8000286451652798       -0.11819281719316364
3.75E9                   0.7836553976374244       -0.19633073504939014
3.78E9                   0.7597352777053509       -0.2723480954236071
3.81E9                   0.7285315296417189       -0.3455306832023459
3.84E9                   0.6903715143095707       -0.4151961192431573
3.87E9                   0.6456428960901516       -0.48069858184700404
3.9E9                    0.5947898682011461       -0.5414330613830728
3.93E9                   0.5383094800501368       -0.5968393481457768
3.96E9                   0.47674801700986047      -0.6464059632710453
3.99E9                   0.4106972718467393       -0.6896741884618897
4.02E9                   0.3407904771303811       -0.7262422405610051
4.05E9                   0.26769766566866443      -0.7557695039851704
4.08E9                   0.1921202928343714       -0.7779806195353421
4.11E9                   0.1147850674957109       -0.792669165424194
4.14E9                   0.036437060959236336     -0.7997006683816298
4.17E9                   -0.042167737571233134    -0.7990147401363442
4.2E9                    -0.1202701963096665      -0.7906262240980091
4.23E9                   -0.19711591925530866     -0.7746253307053839
4.26E9                   -0.27196303504716574     -0.7511768142908294
4.29E9                   -0.34408976051503315     -0.7205182854986427
4.32E9                   -0.4128016609172715      -0.682957759337135
4.35E9                   -0.4774385705007591      -0.6388705184521002
4.38E9                   -0.5373811539020602      -0.5886953394613029
4.41E9                   -0.5920570827830385      -0.5329301026112102
4.44E9                   -0.6409467814491843      -0.47212679226815707
4.47E9                   -0.6835886719542705      -0.4068859006292854
4.5E9                    -0.7195838324582865      -0.3378502664329215
4.53E9                   -0.7485999777865344      -0.265698407773077
4.56E9                   -0.7703746794332744      -0.19113743689357943
4.59E9                   -0.7847177626478461      -0.11489566946677009
4.62E9                   -0.7915128483656535      -0.03771505651158852
4.65E9                   -0.7907180433819424      0.03965643025206991
4.68E9                   -0.7823658167549461      0.11647234227984578
4.71E9                   -0.7665621248935583      0.191995138344901
4.74E9                   -0.743484853713601       0.2655033563407735
4.77E9                   -0.713381630448628       0.3362985519140433
4.8E9                    -0.6765670262043         0.4037119967467335
4.83E9                   -0.6334191374614933      0.46711111766719243
4.86E9                   -0.5843755172188912      0.525905624310203
4.89E9                   -0.5299284349057967      0.5795532316559545
4.92E9                   -0.470619478901818       0.6275648511292342
4.95E9                   -0.40703356675801716     0.6695091134826269
4.98E9                   -0.33979248217821456     0.7050161034090704
5.01E9                   -0.26954810073289365     0.7337802276765721
5.04E9                   -0.19697548764473982     0.7555621980402342
5.07E9                   -0.12276604365658202     0.7701901762437311
5.1E9                    -0.04762083647932585     0.7775601866859504
5.13E9                   0.027755809548457223     0.777635936061297
5.16E9                   0.10266246872013128      0.7704481738423113
5.19E9                   0.1764065785668322       0.7560936786950028
5.22E9                   0.24831029783253789      0.7347338779743597
5.25E9                   0.31771630610891394      0.7065930331000412
5.28E9                   0.38399351484446353      0.6719558905418146
5.31E9                   0.4465425759818009       0.6311647273844536
5.34E9                   0.5048010303448731       0.5846158004518042
5.37E9                   0.5582479572796537       0.5327552992577165
5.4E9                    0.6064080605220248       0.4760749606381962
5.43E9                   0.6488552165175592       0.4151075020802124
5.46E9                   0.6852155803961342       0.35042197680878484
5.49E9                   0.715170367335902        0.2826190737389815
5.52E9                   0.7384584013816679       0.21232631145168634
5.55E9                   0.7548784650723968       0.14019302962198288
5.58E9                   0.7642914117593403       0.06688507287869487
5.61E9                   0.7666219364410637       -0.006920910572587579
5.64E9                   0.7618598540301325       -0.08054357677952885
5.67E9                   0.7500607173434404       -0.15330334521117828
5.7E9                    0.731345630389318        -0.22452907246925233
5.73E9                   0.7059001791538464       -0.29356473870681665
5.76E9                   0.6739725004598878       -0.35977592343036835
5.79E9                   0.6358706077719689       -0.42255588671437466
5.82E9                   0.591959149494384        -0.48133116290864963
5.85E9                   0.5426557636985709       -0.5355666775432092
5.88E9                   0.488427122531453        -0.5847704654439608
5.91E9                   0.42978467073472476      -0.6284980716416352
5.94E9                   0.36728000087446483      -0.6663566658729363
5.97E9                   0.3014997956422072       -0.6980088304984574
6.0E9                    0.23306029855306126      -0.7231759244346891
