% Model:              three_layers reality at 0.1mm.mph
% Version:            COMSOL 5.6.0.280
% Date:               Mar 10 2022, 17:02
% Table:              表格 1 - 全局计算 1
% freq (Hz)              real(emw.S11) (1)        imag(emw.S11) (1)
300000000                0.45731707902644275      -0.7405294659468608
330000000                0.3821314716917581       -0.7788208964978638
360000000                0.3039758357373254       -0.8097050046383135
390000000                0.22354315426486837      -0.832948359958953
420000000                0.14155150373451805      -0.8483842140964444
450000000                0.058735649146437835     -0.8559148620569929
480000000                -0.02416098875081918     -0.8555130723820972
510000000                -0.10639409658188921     -0.847222655251199
540000000                -0.1872259960126204      -0.8311582197297906
570000000                -0.2659329309783471      -0.8075041624394372
600000000                -0.3418120892532259      -0.7765129261789809
630000000                -0.4141883201843494      -0.7385025668012727
660000000                -0.4824205052401256      -0.6938536680116103
690000000                -0.5459075348817004      -0.6430056468364961
720000000                -0.6040938458243792      -0.5864524957305923
750000000                -0.65647447468417        -0.5247380108725086
780000000                -0.7025995868276514      -0.45845056004701257
810000000                -0.7420784439048815      -0.38821744651602247
840000000                -0.7745827780392365      -0.31469892861236987
870000000                -0.7998495464646876      -0.23858195699719853
900000000                -0.8176830460746514      -0.16057369365170976
930000000                -0.8279563736334504      -0.08139487810526098
960000000                -0.8306122238450192      -0.0017731068196273768
990000000                -0.8256630238310108      0.07756390779774708
1020000000               -0.8131904091789158      0.15589503338752625
1050000000               -0.7933440529956782      0.23251230416343038
1080000000               -0.766339865659621       0.3067273355124894
1110000000               -0.7324575889338053      0.37787750665838865
1140000000               -0.6920378136828236      0.4453318546031804
1170000000               -0.6454784557703848      0.5084966259581459
1200000000               -0.5932307294946413      0.566820437537733
1230000000               -0.535794662280133       0.6197990010507777
1260000000               -0.47371419811093285     0.6669793722155137
1290000000               -0.40757194059185675     0.7079636896682351
1320000000               -0.33798358908222936     0.7424123746813583
1350000000               -0.2655921234850204      0.7700467682805103
1380000000               -0.1910617948344438      0.7906511880665618
1410000000               -0.11507197968719379     0.804074392912289
1440000000               -0.03831095664401758     0.8102304494994347
1470000000               0.038530336926816844     0.8090990003797764
1500000000               0.11476451070522664      0.8007249388611655
1530000000               0.18971383385303364      0.7852175014345945
1560000000               0.2627161999602354       0.7627487937015657
1590000000               0.333130892815022        0.7335517706734039
1620000000               0.4003441039536549       0.697917696986552
1650000000               0.46377415612227435      0.6561931168998095
1680000000               0.5228763904558381       0.6087763678478028
1710000000               0.5771476787510839       0.5561136750358785
1740000000               0.6261305267726599       0.49869486758205517
1770000000               0.6694167387231365       0.43704875962766715
1800000000               0.7066506179499478       0.37173824211852935
1830000000               0.7375316840881414       0.3033551327419873
1860000000               0.7618168922091701       0.23251483293280858
1890000000               0.779322345479049        0.15985084136493716
1920000000               0.7899244991040206       0.08600917323621252
1950000000               0.793560860187041        0.01164273307444324
1980000000               0.7902301953931752       -0.06259431418880894
2010000000               0.779992265903286        -0.13605213527285906
2040000000               0.7629671160445718       -0.20809075464884128
2070000000               0.7393339465480676       -0.2780855012845286
2100000000               0.7093296014118615       -0.3454323854497835
2130000000               0.6732466816166881       -0.4095534452944941
2.16E9                   0.6314312573853865       -0.4699021363613623
2.19E9                   0.5842800682281111       -0.5259688566792894
2.22E9                   0.532236967778357        -0.5772866671215271
2.25E9                   0.4757882109888641       -0.6234371157969845
2.28E9                   0.41545609454663135      -0.6640557355344789
2.31E9                   0.35179065765819006      -0.6988362706643113
2.34E9                   0.28535986856784473      -0.7275322648662018
2.37E9                   0.2167399165093299       -0.7499548776932798
2.4E9                    0.14650816923490648      -0.7659671954127568
2.43E9                   0.07524083594242584      -0.7754774277302243
2.46E9                   0.0035150063122094013    -0.7784345539085341
2.49E9                   -0.06808793079169817     -0.7748287299068461
2.52E9                   -0.13898114829408126     -0.7646958223258167
2.55E9                   -0.20857537890294103     -0.748123236512936
2.58E9                   -0.2762854435657756      -0.7252542199284433
2.61E9                   -0.34153841756909187     -0.696289325779301
2.64E9                   -0.40378169954955595     -0.6614851976201032
2.67E9                   -0.4624900499880383      -0.6211515143682007
2.7E9                    -0.5171713747272476      -0.5756469344401007
2.73E9                   -0.5673713977342589      -0.5253746003394307
2.76E9                   -0.6126774649709111      -0.470777489348665
2.79E9                   -0.6527216867370087      -0.41233371719037726
2.82E9                   -0.6871835559286796      -0.3505518138600181
2.85E9                   -0.7157921178743898      -0.28596596062417595
2.88E9                   -0.7383277252140776      -0.21913117541893837
2.91E9                   -0.7546233867050042      -0.15061844307967165
2.94E9                   -0.7645657067205255      -0.0810097982435079
2.97E9                   -0.7680954078858891      -0.010893379016135999
3.0E9                    -0.7652074295658963      0.0591415225866451
3.03E9                   -0.7559505977483147      0.12850938163270134
3.06E9                   -0.7404268661658331      0.19663329731795498
3.09E9                   -0.7187901334749741      0.2629497488596134
3.12E9                   -0.691244646502338       0.3269132129155704
3.15E9                   -0.6580430044637393      0.38800060664888275
3.18E9                   -0.6194837831499047      0.4457155233983594
3.21E9                   -0.5759088007715668      0.49959223174469564
3.24E9                   -0.5277000481428595      0.5491994127784041
3.27E9                   -0.4752763049338558      0.5941436138953377
3.3E9                    -0.41908946131905406     0.6340723991862244
3.33E9                   -0.359620561341775       0.6686771757803509
3.36E9                   -0.29737558209351844     0.6976956718204494
3.39E9                   -0.23288096295270214     0.7209140354127599
3.42E9                   -0.1666789032692874      0.7381685158252147
3.45E9                   -0.09932245625926975     0.7493466802658535
3.48E9                   -0.03137046195124071     0.7543881144108434
3.51E9                   0.036617617918832404     0.7532845555192091
3.54E9                   0.10408687773762787      0.7460794166017655
3.57E9                   0.17049205288265876      0.7328666803579971
3.6E9                    0.2353023931489755       0.7137891716940861
3.63E9                   0.2980062060404897       0.6890362533384442
3.66E9                   0.358114965201715        0.6588410237039826
3.69E9                   0.41516690498749825      0.6234771230714539
3.72E9                   0.4687300537518187       0.5832552702183185
3.75E9                   0.5184046905430607       0.5385196583658857
3.78E9                   0.5638252417060425       0.4896443407900277
3.81E9                   0.604661669209591        0.43702973376404003
3.84E9                   0.6406204453480954       0.38109935177769616
3.87E9                   0.6714452550345812       0.32229685628630655
3.9E9                    0.6969176023836927       0.2610834369330242
3.93E9                   0.7168575013847538       0.1979354587815913
3.96E9                   0.7311243857017495       0.1333422225707844
3.99E9                   0.7396182824317677       0.06780362829821061
4.02E9                   0.742281182355519        0.0018275300942287302
4.05E9                   0.7390984398158974       -0.06407337268665432
4.08E9                   0.7300999797392532       -0.12938516428313726
4.11E9                   0.7153610913304693       -0.19359680788765218
4.14E9                   0.6950026410154294       -0.2562045656603825
4.17E9                   0.669190620036753        -0.3167165540239898
4.2E9                    0.6381350288628163       -0.3746572435645117
4.23E9                   0.6020881692040533       -0.42957174906348294
4.26E9                   0.5613424519759468       -0.48102981233646036
4.29E9                   0.5162278334275311       -0.528629439662867
4.32E9                   0.46710896889037645      -0.5720002005367213
4.35E9                   0.4143821374919403       -0.6108062160089109
4.38E9                   0.35847195634828605      -0.644748862810919
4.41E9                   0.29982788064287824      -0.6735692005823296
4.44E9                   0.23892048096513607      -0.6970501049314488
4.47E9                   0.17623749949366854      -0.715018068457284
4.5E9                    0.11227970611500311      -0.7273446212471513
4.53E9                   0.047556597688385695     -0.7339473234358892
4.56E9                   -0.01741799688979313     -0.7347902939005814
4.59E9                   -0.08213032998996805     -0.7298842585745324
4.62E9                   -0.14607108709962766     -0.7192861262588499
4.65E9                   -0.2087396045477486      -0.7030981250577162
4.68E9                   -0.26964789952161833     -0.6814665529505163
4.71E9                   -0.32832448680106724     -0.6545802047259581
4.74E9                   -0.38431798608591117     -0.62266852950355
4.77E9                   -0.4372005438081278      -0.5859995488342793
4.8E9                    -0.48657109451870356     -0.5448775329048345
4.83E9                   -0.5320584667636358      -0.49964040505067286
4.86E9                   -0.5733243036146958      -0.45065683520965455
4.89E9                   -0.6100657321164742      -0.3983229968375717
4.92E9                   -0.6420176926382132      -0.34305899547174734
4.95E9                   -0.6689548368603679      -0.28530502027642124
4.98E9                   -0.6906929233173648      -0.22551731027454733
5.01E9                   -0.707089677582382       -0.16416405452352573
5.04E9                   -0.7180451329159574      -0.10172135321773934
5.07E9                   -0.7235015168321851      -0.03866935089561288
5.1E9                    -0.7234427880724956      0.024511386543435564
5.13E9                   -0.717893944174421       0.08734323652034354
5.16E9                   -0.7069202021858447      0.1493546724129574
5.19E9                   -0.6906261036670052      0.2100832934383713
5.22E9                   -0.6691545248221469      0.26907882559785784
5.25E9                   -0.6426855121628188      0.3259061458262464
5.28E9                   -0.611434843737656       0.38014830829742663
5.31E9                   -0.5756522491747479      0.4314094813059482
5.34E9                   -0.5356192944146171      0.4793176711893883
5.37E9                   -0.49164701327639837     0.5235271330499667
5.4E9                    -0.44407341101859066     0.5637204342747948
5.43E9                   -0.39326095720358867     0.59961021344807
5.46E9                   -0.3395941342886585      0.6309407310651332
5.49E9                   -0.28347703909734        0.6574893215181853
5.52E9                   -0.22533097306820515     0.6790678293266463
5.55E9                   -0.16559192120469923     0.6955240603952826
5.58E9                   -0.10470781461913231     0.7067432184056948
5.61E9                   -0.0431354951712077      0.7126492413742161
5.64E9                   0.01866265270896772      0.7132059141789808
5.67E9                   0.08022237556150742      0.7084176178528268
5.7E9                    0.14108143497175993      0.6983295934777527
5.73E9                   0.20078355265483375      0.6830276512699229
5.76E9                   0.2588822472296977       0.6626373354328803
5.79E9                   0.3149444240584199       0.6373226370725444
5.82E9                   0.36855365474879975      0.6072843959068802
5.85E9                   0.4193131708423984       0.572758522938846
5.88E9                   0.466848655581684        0.5340141164943084
5.91E9                   0.5108109237599608       0.49135146629091786
5.94E9                   0.5508785384563613       0.4450998828761676
5.97E9                   0.5867603526900304       0.39561527324207235
6.0E9                    0.6181979124106608       0.3432774038047492
