% Model:              three_layers reality at 0.1mm.mph
% Version:            COMSOL 5.6.0.280
% Date:               Mar 10 2022, 17:01
% Table:              表格 1 - 全局计算 1
% freq (Hz)              real(emw.S11) (1)        imag(emw.S11) (1)
300000000                0.45430699481147896      -0.735997879326072
330000000                0.3797096368263976       -0.7738629415305746
360000000                0.30219438229738177      -0.8044069733031682
390000000                0.22244149754970177      -0.8273997491080503
420000000                0.1411568006605462       -0.8426765897059498
450000000                0.059063151210215284     -0.850140733512615
480000000                -0.023107608648103906    -0.8497647666185385
510000000                -0.10462239199337464     -0.8415911941767527
540000000                -0.18475433740201305     -0.825732211423143
570000000                -0.26279001969890764     -0.8023687195657022
600000000                -0.33803638460979457     -0.7717486261849988
630000000                -0.4098273761976581      -0.7341844681900862
660000000                -0.47753021768716863     -0.6900503965438731
690000000                -0.5405513033726053      -0.6397785642061965
720000000                -0.5983416582925107      -0.5838549619368502
750000000                -0.6504019235849617      -0.5228147500964629
780000000                -0.6962868282341401      -0.45723713807741756
810000000                -0.7356091117540977      -0.3877398660981253
840000000                -0.7680428666646852      -0.3149733474131951
870000000                -0.7933262751979855      -0.2396145308732742
900000000                -0.8112637198043677      -0.16236054657315943
930000000                -0.8217272534715324      -0.08392219778750022
960000000                -0.8246574216506884      -0.005017363929673614
990000000                -0.8200634340456215      0.07363562090973061
1020000000               -0.8080226907628726      0.15132454995632227
1050000000               -0.7886796734786019      0.22734982309099175
1080000000               -0.7622442183978042      0.30103076249262745
1110000000               -0.7289891935451082      0.3717117057315265
1140000000               -0.6892476084637875      0.43876782045080476
1170000000               -0.6434091896053062      0.5016105881174845
1200000000               -0.5919164593823661      0.5596929084216996
1230000000               -0.5352603611724626      0.6125137801624598
1260000000               -0.47397547639465354     0.6596225191785319
1290000000               -0.4086348829623465      0.7006224789968937
1320000000               -0.339844707152012       0.7351742451446341
1350000000               -0.26823842315099594     0.7629982794550645
1380000000               -0.19447095588080343     0.7838769964973447
1410000000               -0.11921264394194075     0.7976562597113704
1440000000               -0.043143119682397923    0.8042462906525183
1470000000               0.03305483660730779      0.8036219902743128
1500000000               0.1087014121950638       0.7958226767202029
1530000000               0.18312579204300283      0.7809512493972877
1560000000               0.25567205037276486      0.7591727942683241
1590000000               0.32570485251109427      0.7307126501548384
1620000000               0.39261491859540193      0.6958539604607861
1650000000               0.45582420373096344      0.6549347389822149
1680000000               0.514790752481422        0.6083444824582175
1710000000               0.5690131894712611       0.5565203660460679
1740000000               0.6180348118608727       0.499943061105649
1770000000               0.6614472537592736       0.4391322175327414
1800000000               0.6988936974673717       0.37464165511511005
1830000000               0.7300716112814793       0.3070543103889667
1860000000               0.7547349989961856       0.23697698675610812
1890000000               0.7726961519684932       0.16503495633457033
1920000000               0.7838269007653494       0.09186646181989629
1950000000               0.7880593700849968       0.0181171653867018
1980000000               0.7853862478021054       -0.055565411514748475
2010000000               0.7758605863191144       -0.12853741919207654
2040000000               0.7595951611444147       -0.20016415297016127
2070000000               0.7367614159607414       -0.2698254548692458
2100000000               0.707588021376979        -0.3369210523117718
2130000000               0.6723590589788554       -0.4008758716810543
2.16E9                   0.6314118015521868       -0.461145396522653
2.19E9                   0.5851339799184911       -0.5172211582859457
2.22E9                   0.5339602983700752       -0.5686364139380873
2.25E9                   0.4783678071288046       -0.6149719158326405
2.28E9                   0.4188696595748562       -0.65586134724569
2.31E9                   0.3560069787978597       -0.6909954993856102
2.34E9                   0.2903392627312602       -0.7201238596429912
2.37E9                   0.22243491847896682      -0.7430525234651224
2.4E9                    0.15286441832326397      -0.759638714540716
2.43E9                   0.08219804049324093      -0.7697842642910091
2.46E9                   0.011007837048395608     -0.7734315189894332
2.49E9                   -0.06012911520846523     -0.7705638951781998
2.52E9                   -0.13062974015962664     -0.7612104260867772
2.55E9                   -0.19990804453589048     -0.7454515176714583
2.58E9                   -0.26738163540415655     -0.7234231716905345
2.61E9                   -0.3324798132438118      -0.695318412563725
2.64E9                   -0.39465154986128126     -0.6613860918740537
2.67E9                   -0.45337244867232845     -0.621927897978354
2.7E9                    -0.5081504759943648      -0.5772943902924316
2.73E9                   -0.5585306085811877      -0.5278806037032332
2.76E9                   -0.6040986349820132      -0.4741214988132463
2.79E9                   -0.6444843127597992      -0.41648735993246633
2.82E9                   -0.6793640145497588      -0.3554791580283138
2.85E9                   -0.7084629353412935      -0.29162386720934813
2.88E9                   -0.731556892266088       -0.2254697221084857
2.91E9                   -0.7484737242721633      -0.15758141292788141
2.94E9                   -0.7590942874549507      -0.08853522623022515
2.97E9                   -0.7633530377339538      -0.01891414971076508
3.0E9                    -0.7612381929655903      0.05069703296254302
3.03E9                   -0.752791469471878       0.11971662545820771
3.06E9                   -0.7381073922847494      0.18757084496522225
3.09E9                   -0.7173321833344677      0.25369855406525404
3.12E9                   -0.6906622369899186      0.3175558610686274
3.15E9                   -0.6583421972225507      0.3786205529158259
3.18E9                   -0.6206626547230378      0.4363963275395823
3.21E9                   -0.5779574850357067      0.49041679629765134
3.24E9                   -0.5306008497928572      0.5402492310267223
3.27E9                   -0.47900388229768665     0.5854980336752468
3.3E9                    -0.4236110764350217      0.6258079081928477
3.33E9                   -0.36489639504502125     0.6608667136588097
3.36E9                   -0.3033591117862668      0.6904079740910998
3.39E9                   -0.23951940077590772     0.7142130141796483
3.42E9                   -0.17391369242401478     0.7321126823728166
3.45E9                   -0.10708982306514621     0.7439886150795071
3.48E9                   -0.0396020208310695      0.7497739907209975
3.51E9                   0.027994210191134707     0.7494537231497719
3.54E9                   0.09514722351129255      0.7430640533903732
3.57E9                   0.16131427765118822      0.7306915185358731
3.6E9                    0.2259663809935578       0.7124713060507817
3.63E9                   0.288592817495881        0.6885850366625773
3.66E9                   0.34870525027025095      0.6592580528558551
3.69E9                   0.4058413251358859       0.6247563163173385
3.72E9                   0.4595677269843286       0.5853830334135041
3.75E9                   0.5094826731452476       0.5414751344475922
3.78E9                   0.5552178588728965       0.49339973404789306
3.81E9                   0.5964399046460033       0.44155069758377447
3.84E9                   0.6328513968120089       0.3863454262750166
3.87E9                   0.6641916587794761       0.328221940892218
3.9E9                    0.6902374247864309       0.267636283164485
3.93E9                   0.7108035915138111       0.20506017051620523
3.96E9                   0.7257441791747891       0.14097875515836297
3.99E9                   0.7349535456297919       0.07588828303382339
4.02E9                   0.7383677873150177       0.010293445660281871
4.05E9                   0.735966163494069        -0.055295726377129664
4.08E9                   0.7277723259233491       -0.12036748279733123
4.11E9                   0.7138551379174157       -0.18441243328446333
4.14E9                   0.6943289186581154       -0.2469279480952578
4.17E9                   0.6693530296672879       -0.30742269385138077
4.2E9                    0.6391308052693958       -0.3654211172916315
4.23E9                   0.6039078961359661       -0.42046772517210224
4.26E9                   0.563970131817752        -0.47213106442044933
4.29E9                   0.5196410120785234       -0.520007364444175
4.32E9                   0.4712789146214862       -0.5637238475549012
4.35E9                   0.4192740715216692       -0.6029417345648987
4.38E9                   0.3640453326369363       -0.6373589705959216
4.41E9                   0.30603671261765036      -0.6667126777289475
4.44E9                   0.2457137132705622       -0.6907813170326168
4.47E9                   0.18355942304336123      -0.7093865223281519
4.5E9                    0.12007041452238294      -0.7223945576945335
4.53E9                   0.05575248255594119      -0.72971735172793
4.56E9                   -0.00888371527863363     -0.7313130728340642
4.59E9                   -0.07332704118770028     -0.7271862288640647
4.62E9                   -0.13707020397584097     -0.7173872983172214
4.65E9                   -0.19961395841602236     -0.7020119251291068
4.68E9                   -0.26047112405935574     -0.6811997291158789
4.71E9                   -0.31917039778440337     -0.6551327927796634
4.74E9                   -0.37525996321332294     -0.6240338774653844
4.77E9                   -0.42831091980224906     -0.5881643981909228
4.8E9                    -0.4779205556511841      -0.5478221547170646
4.83E9                   -0.5237154683463124      -0.5033387896556346
4.86E9                   -0.5653545041586115      -0.4550769349770327
4.89E9                   -0.6025314506573509      -0.4034270218682955
4.92E9                   -0.6349773949525617      -0.3488037618311842
4.95E9                   -0.6624626574063998      -0.29164234926897037
4.98E9                   -0.6847982303561612      -0.2323944754628137
5.01E9                   -0.7018366887171972      -0.1715242710106202
5.04E9                   -0.7134725870881481      -0.10950430159524438
5.07E9                   -0.7196424067100655      -0.04681172668939201
5.1E9                    -0.7203241540951474      0.01607530774199589
5.13E9                   -0.71553672875007        0.07868102740714365
5.16E9                   -0.705339160431755       0.14053518323901323
5.19E9                   -0.6898297661674828      0.20117608715724367
5.22E9                   -0.669145208405889       0.26015362158900257
5.25E9                   -0.643459376305531       0.3170322735964286
5.28E9                   -0.6129819919581763      0.3713941727918313
5.31E9                   -0.577956875730693       0.4228420428633246
5.34E9                   -0.5386598760867296      0.4710019449506253
5.37E9                   -0.49539654420575374     0.5155257136770179
5.4E9                    -0.4484996762690684      0.5560930514623882
5.43E9                   -0.398326838914163       0.5924133219886673
5.46E9                   -0.34525794368222207     0.6242271367382477
5.49E9                   -0.28969286843930125     0.6513078416565037
5.52E9                   -0.23204906347707138     0.6734629853252234
5.55E9                   -0.1727590445329069      0.6905357989780968
5.58E9                   -0.1122676697308771      0.7024066591996072
5.61E9                   -0.05102912039864158     0.7089944499989735
5.64E9                   0.010496448740200927     0.7102577022466379
5.67E9                   0.07184656328916202      0.70619537345363
5.7E9                    0.1325602938726682       0.6968471473309675
5.73E9                   0.19218218488986205      0.6822931841417618
5.76E9                   0.2502660805817682       0.6626533313583116
5.79E9                   0.30637871144719053      0.6380858845623559
5.82E9                   0.36010297768248756      0.6087860364731696
5.85E9                   0.41104095271347796      0.574984144020035
5.88E9                   0.45881668845810797      0.5369438849780306
5.91E9                   0.5030789103428802       0.4949602994195057
5.94E9                   0.5435036498869108       0.4493576547662412
5.97E9                   0.5797968030971303       0.40048705674370155
6.0E9                    0.6116965521305642       0.34872374833853775
