% Model:              three_layers reality at 0.1mm.mph
% Version:            COMSOL 5.6.0.280
% Date:               Mar 2 2022, 19:31
% Table:              表格 1 - 全局计算 1
% freq (Hz)              real(emw.S11) (1)        imag(emw.S11) (1)
300000000                0.6221295182469402       -0.761399221139313
330000000                0.5526102401142506       -0.8134614644261848
360000000                0.4787992084317736       -0.8591844006121472
390000000                0.4012728537494972       -0.8982165530230921
420000000                0.3206363721099679       -0.9302585504356369
450000000                0.23751902834206434      -0.9550655429269439
480000000                0.15256924752012502      -0.9724491803232251
510000000                0.06644953766155358      -0.9822791384217835
540000000                -0.020168712483114783    -0.9844841808370483
570000000                -0.10661051776643866     -0.9790527478529587
600000000                -0.192202618175749       -0.9660330670176421
630000000                -0.27627879597294264     -0.9455327837909255
660000000                -0.35818514273068597     -0.9177181142586801
690000000                -0.43728523410274234     -0.882812525668075
720000000                -0.5129651688421076      -0.841094954506437
750000000                -0.5846384301326251      -0.7928975757607253
780000000                -0.6517505285657265      -0.7386031408109486
810000000                -0.7137833877967558      -0.6786419050962921
840000000                -0.7702594356350397      -0.6134881705436449
870000000                -0.8207453658551116      -0.5436564712707508
900000000                -0.8648555390883952      -0.46969743394543517
930000000                -0.9022549938213253      -0.3921933474838563
960000000                -0.9326620419075673      -0.3117534797999924
990000000                -0.9558504273010767      -0.22900918037134135
1020000000               -0.9716510296234362      -0.14460881131469036
1050000000               -0.9799530992825155      -0.05921254905458782
1080000000               -0.9807050143460911      0.026512898393078122
1110000000               -0.9739145541517429      0.11189961409637161
1140000000               -0.9596486888046956      0.1962837894629604
1170000000               -0.9380328881642859      0.2790109912863871
1200000000               -0.9092499582279144      0.35944133427442604
1230000000               -0.873538416946463       0.4369545162093708
1260000000               -0.8311904256592535      0.5109546739109921
1290000000               -0.7825492960542781      0.5808750206158877
1320000000               -0.7280065961775256      0.6461822274400657
1350000000               -0.6679988824075628      0.7063805141612516
1380000000               -0.6030040870741162      0.7610154177919513
1410000000               -0.5335375943081238      0.8096772102176146
1440000000               -0.4601480388058967      0.8520039398443622
1470000000               -0.3834128641290194      0.8876840756603506
1500000000               -0.3039336787937069      0.9164587357390291
1530000000               -0.22233144935202667     0.9381234860830455
1560000000               -0.13924157064069684     0.9525296993674502
1590000000               -0.05530885357826847     0.9595854670147775
1620000000               0.0288175289598291       0.9592560617208582
1650000000               0.11248909809611299      0.9515639512205752
1680000000               0.1950630871761554       0.936588367611547
1710000000               0.27590738370763646      0.9144644399744444
1740000000               0.35440535766188863      0.8853819012742215
1770000000               0.42996054029569336      0.8495833835869071
1800000000               0.5020011193978817       0.8073623185242105
1830000000               0.5699842184803373       0.7590604625417033
1860000000               0.6333999300683211       0.705065068995536
1890000000               0.6917750748316571       0.6458057313619188
1920000000               0.7446766611547759       0.5817509237876862
1950000000               0.7917150219794348       0.5134042670275144
1980000000               0.8325466083085996       0.4413005494352158
2010000000               0.8668764214912671       0.3660015339118517
2040000000               0.8944600690119877       0.2880915828996464
2070000000               0.9151054312175297       0.20817313454440667
2100000000               0.9286739292866131       0.1268620636159662
2130000000               0.9350813874207223       0.04478296145605784
2.16E9                   0.9342984850651963       -0.03743563035290846
2.19E9                   0.9263507978376279       -0.1191659982217125
2.22E9                   0.9113184285714013       -0.19978601195215978
2.25E9                   0.8893352327157178       -0.2786838233567992
2.28E9                   0.8605876450664219       -0.3552624744262247
2.31E9                   0.8253131174246985       -0.4289443825617104
2.34E9                   0.7837981793043682       -0.49917567127767976
2.37E9                   0.7363761358388295       -0.5654303165445164
2.4E9                    0.6834244189129554       -0.627214080049968
2.43E9                   0.6253616083904874       -0.6840682024209968
2.46E9                   0.5626441407830877       -0.7355728298170435
2.49E9                   0.49576272336166344      -0.7813501460823294
2.52E9                   0.4252384732769608       -0.8210671799243887
2.55E9                   0.3516188078066453       -0.8544382517781053
2.58E9                   0.27547312376393995      -0.8812270237021868
2.61E9                   0.19738832111393842      -0.9012481229044669
2.64E9                   0.11796423724520544      -0.9143683308729225
2.67E9                   0.037809053063847034     -0.9205073585910415
2.7E9                    -0.0424652953589959      -0.9196382466716051
2.73E9                   -0.12224769806992182     -0.911787420622705
2.76E9                   -0.2009324574694854      -0.8970344011842128
2.79E9                   -0.27792387615168207     -0.8755111417796098
2.82E9                   -0.3526408135282109      -0.8474009597815364
2.85E9                   -0.42452115688807535     -0.8129370442791273
2.88E9                   -0.49302614762842156     -0.7724005455576022
2.91E9                   -0.5576445111581967      -0.7261182679708968
2.94E9                   -0.6178963495443597      -0.6744599956911708
2.97E9                   -0.6733367652323898      -0.6178354822845944
3.0E9                    -0.7235591892311588      -0.5566911349005094
3.03E9                   -0.7681983908268587      -0.49150642322782306
3.06E9                   -0.806933147842115       -0.42279004401812553
3.09E9                   -0.8394885587668777      -0.3510758729114598
3.12E9                   -0.8656379804060887      -0.27691873675951334
3.15E9                   -0.8852045774813823      -0.20089004101271846
3.18E9                   -0.8980624736951857      -0.12357328795514791
3.21E9                   -0.9041374971071475      -0.04555952245599633
3.24E9                   -0.9034075161375861      0.03255725774336428
3.27E9                   -0.8959023659944818      0.11018468971610676
3.3E9                    -0.8817033688794972      0.1867365943292763
3.33E9                   -0.8609424547161411      0.2616374499289655
3.36E9                   -0.8338008924929281      0.3343267555058771
3.39E9                   -0.8005076454611961      0.4042632492857589
3.42E9                   -0.7613373664878351      0.4709289501495804
3.45E9                   -0.7166080526287125      0.533832991345177
3.48E9                   -0.6666783806061778      0.5925152179134147
3.51E9                   -0.611944747315706       0.6465495215193637
3.54E9                   -0.5528380415259008      0.6955468890338508
3.57E9                   -0.4898201748326457      0.7391581438090566
3.6E9                    -0.4233804015745773      0.777076361399082
3.63E9                   -0.3540314585238745      0.8090389445786711
3.66E9                   -0.2823055562604601      0.8348293454156789
3.69E9                   -0.20875025451732593     0.8542784253568141
3.72E9                   -0.13392425424386367     0.8672654471876323
3.75E9                   -0.058393138754507495    0.8737186957586934
3.78E9                   0.017274903833277656     0.8736157270031356
3.81E9                   0.09251334521200826      0.8669832473207966
3.84E9                   0.1667615375498553       0.8538966277676465
3.87E9                   0.23946885962897257      0.8344790597343474
3.9E9                    0.31009875854470775      0.8089003611242673
3.93E9                   0.378132657604257        0.7773754444754624
3.96E9                   0.44307370187697476      0.7401624611580897
3.99E9                   0.5044503140268172       0.6975606386648482
4.02E9                   0.5618195349529211       0.6499078309318501
4.05E9                   0.6147701262111955       0.5975778043724023
4.08E9                   0.6629254144391447       0.5409772844442177
4.11E9                   0.705945861679394        0.48054278863282635
4.14E9                   0.7435313488057027       0.4167372718627352
4.17E9                   0.7754231619529315       0.3500466096084059
4.2E9                    0.8014056735554687       0.28097594284985666
4.23E9                   0.821307710219357        0.21004590874113097
4.26E9                   0.8350036002887692       0.1377887811184116
4.29E9                   0.8424138949234194       0.06474454617065956
4.32E9                   0.8435057584117456       -0.008543060097199469
4.35E9                   0.8382930260793192       -0.08153052530037484
4.38E9                   0.8268359309175356       -0.15367851776952804
4.41E9                   0.8092405024222717       -0.2244558009872789
4.44E9                   0.7856576426794789       -0.29334308010849464
4.47E9                   0.7562818857812617       -0.35983675594660086
4.5E9                    0.7213498475799686       -0.4234525618661448
4.53E9                   0.681138374172469        -0.48372905860824433
4.56E9                   0.6359623995533124       -0.5402309615620317
4.59E9                   0.5861725256632166       -0.5925522747807058
4.62E9                   0.5321523410897641       -0.6403192067550351
4.65E9                   0.47431549799017375      -0.6831928441284284
4.68E9                   0.4131025696248159       -0.7208715618156565
4.71E9                   0.34897771341642747      -0.7530931506129426
4.74E9                   0.28242516597465656      -0.7796366466276814
4.77E9                   0.21394559763113713      -0.8003238498824419
4.8E9                    0.14405235415338513      -0.8150205224334732
4.83E9                   0.07326761327583124      -0.8236372586826124
4.86E9                   0.0021184834697820067    -0.8261300224485592
4.89E9                   -0.06886692740193344     -0.822500346902621
4.92E9                   -0.13916344542652723     -0.8127951950781214
4.95E9                   -0.20825273704197925     -0.797106480586483
4.98E9                   -0.2756271588778949      -0.775570250583793
5.01E9                   -0.3407935208817769      -0.748365535883997
5.04E9                   -0.40327673272969405     -0.7157128762119733
5.07E9                   -0.46262330394035467     -0.677872531823862
5.1E9                    -0.5184046691715566      -0.6351423959817567
5.13E9                   -0.5702203118112266      -0.5878556258969312
5.16E9                   -0.6177006611425768      -0.5363780126240217
5.19E9                   -0.6605097409630954      -0.481105112946811
5.22E9                   -0.6983475507725571      -0.42245916790517823
5.25E9                   -0.7309521635997431      -0.3608858335578453
5.28E9                   -0.7581015271109313      -0.2968507498059582
5.31E9                   -0.7796149565052013      -0.2308359730955838
5.34E9                   -0.7953543089175107      -0.16333629927395998
5.37E9                   -0.8052248302608652      -0.09485550407305317
5.4E9                    -0.8091756672798918      -0.02590253032944245
5.43E9                   -0.8072000402799496      0.04301234705315165
5.46E9                   -0.7993350756205451      0.11138134634145083
5.49E9                   -0.785661301048191       0.17870296190155335
5.52E9                   -0.7663018110230913      0.24448567302684132
5.55E9                   -0.7414211129918449      0.30825154825981255
5.58E9                   -0.7112236689372612      0.36953971697400495
5.61E9                   -0.675952149305791       0.427909682711725
5.64E9                   -0.6358854183646345      0.4829444559625528
5.67E9                   -0.5913362708995842      0.5342534873269037
5.7E9                    -0.5426489399404887      0.5814753847259814
5.73E9                   -0.4901963942720774      0.6242803999062669
5.76E9                   -0.43437744403036427     0.6623726694262937
5.79E9                   -0.37561367354967107     0.6954921945566842
5.82E9                   -0.3143462235804342      0.7234165440716447
5.85E9                   -0.2510324488894306      0.7459622655586788
5.88E9                   -0.18614248084316573     0.762985994751721
5.91E9                   -0.12015572590683732     0.7743852578993784
5.94E9                   -0.053557330026036715    0.7800989674519977
5.97E9                   0.013165363744923298     0.7801076151638737
6.0E9                    0.07952634014823268      0.7744331687431929
