% Model:              three_layers reality at 0.1mm.mph
% Version:            COMSOL 5.6.0.280
% Date:               Apr 19 2022, 16:48
% Table:              表格 1 - 全局计算 1
% freq (Hz)              real(emw.S11) (1)        imag(emw.S11) (1)
300000000                0.5661959318156182       -0.7738897478366984
330000000                0.49192529839287114      -0.8217668575214878
360000000                0.4137708317575264       -0.8626093449643076
390000000                0.33237181558407924      -0.8961085773790874
420000000                0.24839627187408625      -0.9220106376774977
450000000                0.1625356098688421       -0.9401201837189457
480000000                0.0754989160542765       -0.9503034377472583
510000000                -0.011993017334472356    -0.9524903924368253
540000000                -0.09921385071837446     -0.9466762849047285
570000000                -0.1854379739998361      -0.9329223691375781
600000000                -0.26994684009960557     -0.9113560061370793
630000000                -0.35203529172588094     -0.8821700861552586
660000000                -0.43101782028430924     -0.8456217959217791
690000000                -0.5062346937948135      -0.8020307456740015
720000000                -0.5770578916535278      -0.751776473970711
750000000                -0.6428967842090432      -0.6952953530338438
780000000                -0.7032034961979581      -0.6330769230225952
810000000                -0.7574778956876416      -0.5656596892141085
840000000                -0.8052721524430861      -0.493626422897847
870000000                -0.8461948144653348      -0.4175990120737971
900000000                -0.8799143555595971      -0.3382329146301353
930000000                -0.9061621531099896      -0.2562112714554123
960000000                -0.9247348614809566      -0.17223874196818512
990000000                -0.9354961539590282      -0.08703512790619239
1020000000               -0.9383778136389701      -0.001328854980939761
1050000000               -0.9333801621312608      0.08414961701430676
1080000000               -0.9205718232329275      0.16867438370685603
1110000000               -0.9000888271577667      0.25153061382164416
1140000000               -0.8721330693739632      0.3320209247086534
1170000000               -0.8369701460093201      0.40947154864299035
1200000000               -0.7949265955507383      0.483238225434639
1230000000               -0.7463865833660719      0.5527117622205728
1260000000               -0.6917880720516391      0.61732320593737
1290000000               -0.6316185258071164      0.676548580533523
1320000000               -0.566410201719921       0.729913147136408
1350000000               -0.49673508432185776     0.7769951525328028
1380000000               -0.4231995222129339      0.8174290385406379
1410000000               -0.3464386272378639      0.8509080919984033
1440000000               -0.2671104971555351      0.8771865224293767
1470000000               -0.1858903224162347      0.8960809613980623
1500000000               -0.10346443644306441     0.9074713842698394
1530000000               -0.020524366911015158    0.9113014613456992
1560000000               0.06223905724073564      0.9075783510799881
1590000000               0.14414149130882858      0.8963719532505862
1620000000               0.22451070499715833      0.8778136444597291
1650000000               0.3026920129879045       0.852094522264277
1680000000               0.37805346613746843      0.8194631874138788
1710000000               0.44999076761537893      0.7802230962912088
1740000000               0.5179318825983711       0.7347295176400889
1770000000               0.5813413144617886       0.6833861290110003
1800000000               0.639724024264956        0.6266412894079295
1830000000               0.6926289745363676       0.5649840248619052
1860000000               0.7396522816859381       0.4989397639309987
1890000000               0.7804399649845835       0.429065859743351
1920000000               0.8146902830120614       0.355946934799642
1950000000               0.8421556513791075       0.2801900840320423
1980000000               0.8626441380534712       0.20241997081066324
2010000000               0.8760205348930168       0.12327384983149248
2040000000               0.8822070061440912       0.04339654976825567
2070000000               0.8811833165241794       -0.036564552170097346
2100000000               0.872986643312488        -0.11596453257568151
2130000000               0.8577109785696635       -0.19416587068093316
2.16E9                   0.8355061292420878       -0.27054331425325734
2.19E9                   0.8065763245493859       -0.3444886338712993
2.22E9                   0.7711784416417817       -0.41541523807404473
2.25E9                   0.7296198620340608       -0.48276262311205564
2.28E9                   0.6822559725925221       -0.5460006326647753
2.31E9                   0.6294873256242604       -0.6046335048473073
2.34E9                   0.5717564721987606       -0.6582036863478575
2.37E9                   0.5095444808698771       -0.7062953954798017
2.4E9                    0.4433671490966955       -0.7485379168950984
2.43E9                   0.3737709074927613       -0.784608607225886
2.46E9                   0.3013284084227248       -0.8142355799984499
2.49E9                   0.22663378762293684      -0.8372000149553422
2.52E9                   0.15029760143346388      -0.8533380026107891
2.55E9                   0.07294148976621066      -0.8625418015453218
2.58E9                   -0.0048073002599213766   -0.8647603863547584
2.61E9                   -0.08232130132399132     -0.8599992383725183
2.64E9                   -0.15897786661591412     -0.8483194875264521
2.67E9                   -0.23416371774613545     -0.8298366787649596
2.7E9                    -0.30727908321560665     -0.8047194759833189
2.73E9                   -0.3777417112286637      -0.7731884574863924
2.76E9                   -0.44499105272178846     -0.7355148944574297
2.79E9                   -0.5084927274950668      -0.6920192299356471
2.82E9                   -0.5677431601848127      -0.643068993106886
2.85E9                   -0.6222741508529365      -0.5890760314507012
2.88E9                   -0.6716571554821895      -0.5304930949352396
2.91E9                   -0.7155071311111265      -0.4678098878988133
2.94E9                   -0.7534858799073126      -0.4015487166460743
2.97E9                   -0.7853048756976199      -0.33225983821487387
3.0E9                    -0.8107275761018315      -0.26051658839470754
3.03E9                   -0.8295712268236355      -0.1869103469855419
3.06E9                   -0.8417081617973401      -0.1120453884865522
3.09E9                   -0.8470666004832881      -0.036533662779291445
3.12E9                   -0.8456309431532069      0.03901044934688591
3.15E9                   -0.8374415669915625      0.11397535998174156
3.18E9                   -0.8225941294212581      0.18775743049052274
3.21E9                   -0.8012383896336677      0.2597660135885997
3.24E9                   -0.7735765642351509      0.3294283353673801
3.27E9                   -0.7398612378336605      0.39619417316016464
3.3E9                    -0.7003928538668803      0.4595402881045047
3.33E9                   -0.655516815092827       0.5189745742717163
3.36E9                   -0.6056202266472144      0.5740398900853134
3.39E9                   -0.5511283175775473      0.6243175416722795
3.42E9                   -0.4925005791970188      0.6694303920474282
3.45E9                   -0.43022666063832454     0.7090455743209045
3.48E9                   -0.3648220634529764      0.7428767916576509
3.51E9                   -0.2968236781505527      0.7706861912761598
3.54E9                   -0.22678520610491637     0.792285804434327
3.57E9                   -0.1552725102177842      0.8075385490679688
3.6E9                    -0.08285893722025968     0.8163587964186276
3.63E9                   -0.010120653143929915    0.8187125076261936
3.66E9                   0.062367968389793665     0.8146169505949725
3.69E9                   0.13403886814746926      0.8041400112968861
3.72E9                   0.20433469993485007      0.7873991167319815
3.75E9                   0.2727130757547812       0.7645597887756597
3.78E9                   0.33865063072637425      0.7358338490517073
3.81E9                   0.40164688336362797      0.7014772950520909
3.84E9                   0.461227868317998        0.6617878674415281
3.87E9                   0.516949518706235        0.6171023287033428
3.9E9                    0.5684007745626877       0.567793474630366
3.93E9                   0.615206393211884        0.5142669032513081
3.96E9                   0.6570294377819984       0.45695757067971554
3.99E9                   0.6935734227743983       0.39632616947236193
4.02E9                   0.7245841015624915       0.3328553710890205
4.05E9                   0.7498508899662184       0.2670459779293412
4.08E9                   0.7692079314280399       0.19941303020133255
4.11E9                   0.7825348202581299       0.130481907065881
4.14E9                   0.7897570064386689       0.06078445109894222
4.17E9                   0.7908459061870318       -0.009144867282817297
4.2E9                    0.7858187366516476       -0.07877273860924434
4.23E9                   0.7747380837188299       -0.14757075355817661
4.26E9                   0.7577112035185447       -0.21501908695667452
4.29E9                   0.7348890547274576       -0.28061011434650146
4.32E9                   0.706465061085887        -0.34385194245349365
4.35E9                   0.6726736090840788       -0.4042718329439865
4.38E9                   0.6337882905438662       -0.4614195012467245
4.41E9                   0.5901199006065697       -0.5148702771709676
4.44E9                   0.5420141982334649       -0.5642281173365729
4.47E9                   0.48984943103873424      -0.6091284586429596
4.5E9                    0.43403362261530937      -0.6492408967021954
4.53E9                   0.375001621035983        -0.6842716654866559
4.56E9                   0.3132119124886643       -0.713965887367733
4.59E9                   0.24914321282219004      -0.738109558738895
4.62E9                   0.18329086003419662      -0.7565312367091267
4.65E9                   0.11616304003188543      -0.7691033968890967
4.68E9                   0.048276884925806667     -0.7757434399971013
4.71E9                   -0.01984551354515034     -0.7764143345056095
4.74E9                   -0.08768113340657796     -0.7711248920373266
4.77E9                   -0.1547100565154752      -0.7599296799221859
4.8E9                    -0.2204194752194046      -0.7429285797269668
4.83E9                   -0.28430764527576485     -0.7202660012157647
4.86E9                   -0.34588776251360925     -0.6921297588631149
4.89E9                   -0.40469174080734904     -0.6587496148377137
4.92E9                   -0.46027386619538047     -0.6203954904109561
4.95E9                   -0.5122142975176214      -0.5773753485563009
4.98E9                   -0.560122379743847       -0.5300327543070497
5.01E9                   -0.6036397337787642      -0.47874412528588456
5.04E9                   -0.642443086121689       -0.4239156918271072
5.07E9                   -0.6762468036893039      -0.3659801931151411
5.1E9                    -0.7048051029313195      -0.30539334237889115
5.13E9                   -0.7279139081048639      -0.2426300998661982
5.16E9                   -0.7454123411834621      -0.17818079628324235
5.19E9                   -0.7571838347038403      -0.11254715063956021
5.22E9                   -0.7631568674831067      -0.046238224098766295
5.25E9                   -0.7633053292760432      0.020233654232203593
5.28E9                   -0.7576485222153103      0.08635696065439424
5.31E9                   -0.7462508041273725      0.15162502537469813
5.34E9                   -0.7292208739090201      0.21554003275079137
5.37E9                   -0.7067106958081534      0.2776169450075551
5.4E9                    -0.6789140607427121      0.3373873139686169
5.43E9                   -0.6460647893061403      0.39440293872907733
5.46E9                   -0.6084345911915922      0.4482393243744867
5.49E9                   -0.566330606597987       0.49849889877928516
5.52E9                   -0.520092664656057       0.5448139503295917
5.55E9                   -0.4700903008479045      0.5868492580318199
5.58E9                   -0.41671957924903086     0.6243043958403756
5.61E9                   -0.36039976578289823     0.6569157042887879
5.64E9                   -0.3015698947495353      0.684457933483349
5.67E9                   -0.24068526232921938     0.7067455700006416
5.7E9                    -0.17821386884400603     0.7236338631787032
5.73E9                   -0.11463282005135939     0.7350195614786535
5.76E9                   -0.05042469235301805     0.7408413579005605
5.79E9                   0.013926128335927324     0.7410800303982306
5.82E9                   0.07793710976495288      0.7357582567868222
5.85E9                   0.1411311974300702       0.7249400894799343
5.88E9                   0.20304034830197681      0.7087300921416667
5.91E9                   0.26320892528880613      0.6872721604678484
5.94E9                   0.32119691693361363      0.6607480637694964
5.97E9                   0.37658296435806327      0.6293757480883715
6.0E9                    0.4289671922271687       0.5934074361865834
