% Model:              three_layers reality at 0.1mm.mph
% Version:            COMSOL 5.6.0.280
% Date:               Feb 25 2022, 15:54
% Table:              表格 1 - 全局计算 1
% freq (Hz)              real(emw.S11) (1)        imag(emw.S11) (1)
300000000                0.5986150894084313       -0.7280605199623214
330000000                0.5330575302986607       -0.7765651487074241
360000000                0.46368300549505936      -0.8192486622287188
390000000                0.3909950691236388       -0.8558071895951391
420000000                0.31552395528965643      -0.8859811659590661
450000000                0.2378220058377364       -0.9095574864193721
480000000                0.15845914338042918      -0.9263712641987241
510000000                0.07801834290255556      -0.9363071950607857
540000000                -0.002908912173355205    -0.9393005271754987
570000000                -0.0837271852145694      -0.9353376349591361
600000000                -0.163841637341835       -0.9244561961632821
630000000                -0.24266255189060787     -0.9067449730274522
660000000                -0.319609807349376       -0.8823432000645015
690000000                -0.3941172680865586      -0.8514395839431856
720000000                -0.46563706524945075     -0.8142709226994532
750000000                -0.5336437358034055      -0.7711203549178195
780000000                -0.5976381898970943      -0.7223152518687324
810000000                -0.6571514764395329      -0.6682247686774926
840000000                -0.7117483186650648      -0.609257072729601
870000000                -0.7610303915828279      -0.545856271089899
900000000                -0.8046393163871539      -0.47849906011687066
930000000                -0.84225934777005        -0.4076911237803185
960000000                -0.873619733197387       -0.33396330859146794
990000000                -0.8984967252850086      -0.2578676055369175
1020000000               -0.9167152315102559      -0.1799729705875388
1050000000               -0.92815008825376        -0.10086101703446589
1080000000               -0.9327269492821877      -0.021121614041170612
1110000000               -0.9304227820889134      0.05865157359679521
1140000000               -0.9212659686799656      0.13786556912866807
1170000000               -0.9053360107237188      0.21593255503233424
1200000000               -0.8827628423233774      0.29227429635690294
1230000000               -0.8537257568557579      0.3663264814462398
1260000000               -0.8184519576910815      0.43754294546241673
1290000000               -0.7772147454030909      0.5053997443406879
1320000000               -0.7303313572920207      0.5693990472130891
1350000000               -0.6781604777357464      0.6290728175343263
1380000000               -0.6210994403274666      0.6839862552048491
1410000000               -0.5595811453473346      0.7337409737896654
1440000000               -0.49407071807752506     0.7779778896235316
1470000000               -0.4250619352347771      0.8163798020876721
1500000000               -0.3530734487871734      0.8486736467905633
1530000000               -0.2786448371961345      0.8746324065611737
1560000000               -0.20233251565171778     0.8940766677078126
1590000000               -0.12470553720511415     0.906875812137415
1620000000               -0.04634131770633783     0.9129488386988678
1650000000               0.03217868315669392      0.9122648102472954
1680000000               0.11027329151822923      0.9048429255926035
1710000000               0.1873659275047313       0.8907522185433838
1740000000               0.26288886011775187      0.8701108888961697
1770000000               0.33628737775143436      0.8430852728969888
1800000000               0.4070238440501882       0.8098884633496853
1830000000               0.4745816107322236       0.7707785917227276
1860000000               0.5384687592448387       0.7260567872744663
1890000000               0.598221645882553        0.6760648298573013
1920000000               0.6534082256827297       0.621182515436233
1950000000               0.7036311327511591       0.5618247549247314
1980000000               0.7485304963671734       0.4984384286849235
2010000000               0.787786474353506        0.4314990203905021
2040000000               0.8211214871549277       0.3615070553354614
2070000000               0.8483021382649547       0.2889843694506512
2100000000               0.8691408090116213       0.21447023580457134
2130000000               0.8834969176048884       0.13851737704766914
2.16E9                   0.8912778351542325       0.061687891547107826
2.19E9                   0.8924394532181655       -0.015450877344954726
2.22E9                   0.8869864001055601       -0.0923305000695987
2.25E9                   0.8749719053714213       -0.16838561848775035
2.28E9                   0.8564973143014378       -0.24305807344957175
2.31E9                   0.8317112564443647       -0.3158009737430253
2.34E9                   0.8008084744479732       -0.3860826783926335
2.37E9                   0.7640283213796689       -0.4533906652901163
2.4E9                    0.7216529364189214       -0.5172352598284515
2.43E9                   0.6740051099988513       -0.5771531982141986
2.46E9                   0.6214458505309189       -0.6327110001855987
2.49E9                   0.5643716656249563       -0.683508125498327
2.52E9                   0.5032115729970966       -0.7291798862728545
2.55E9                   0.4384238606756121       -0.7694000851242443
2.58E9                   0.3704926251737497       -0.8038833480458609
2.61E9                   0.2999241270686513       -0.8323871269234632
2.64E9                   0.2272430112662283       -0.8547133605744867
2.67E9                   0.15298843516332125      -0.8707098018844373
2.7E9                    0.07771013055507439      -0.8802710297841867
2.73E9                   0.001964404963756117     -0.8833391586373431
2.76E9                   -0.07368991872613827     -0.879904237973189
2.79E9                   -0.14869561430943376     -0.8700043185729132
2.82E9                   -0.22250118618342907     -0.8537251588597803
2.85E9                   -0.2945649811659         -0.8311995572254512
2.88E9                   -0.36435923179040297     -0.8026063111615938
2.91E9                   -0.43137398911140573     -0.7681688153140409
2.94E9                   -0.4951209103441452      -0.7281533158531279
2.97E9                   -0.5551368720316215      -0.6828668401141926
3.0E9                    -0.6109873823493951      -0.6326548210866972
3.03E9                   -0.6622697687681042      -0.5778984364570755
3.06E9                   -0.708616117875958       -0.5190116835091726
3.09E9                   -0.7496959461504801      -0.4564382123718055
3.12E9                   -0.7852185818284257      -0.3906479420693971
3.15E9                   -0.8149352401002036      -0.3221334855628958
3.18E9                   -0.8386407761254371      -0.2514064116538201
3.21E9                   -0.8561751029935977      -0.1789933728045029
3.24E9                   -0.8674242642947019      -0.10543212941276361
3.27E9                   -0.8723211539674116      -0.031267501557002565
3.3E9                    -0.8708458788892472      0.04295272002367123
3.33E9                   -0.8630257626512127      0.11668187185549028
3.36E9                   -0.8489349918658142      0.18937849258719278
3.39E9                   -0.8286939092634429      0.26051034340930096
3.42E9                   -0.8024679606852971      0.32955834292051506
3.45E9                   -0.7704663057962053      0.39602038658726935
3.48E9                   -0.732940105088736       0.459415021648915
3.51E9                   -0.6901804981791912      0.5192849500909906
3.54E9                   -0.6425162908247795      0.5752003336518545
3.57E9                   -0.5903113703619804      0.6267618766451054
3.6E9                    -0.5339618711410898      0.6736036645940202
3.63E9                   -0.4738931134609936      0.7153957386497641
3.66E9                   -0.41055634088855214     0.7518463883082052
3.69E9                   -0.34442528224102925     0.7827041472406076
3.72E9                   -0.2759925654604441      0.8077594796470386
3.75E9                   -0.20576601106772055     0.8268461471447184
3.78E9                   -0.13426483375862883     0.8398422484452255
3.81E9                   -0.06201578060569144     0.8466709266758867
3.84E9                   0.010450765410716656     0.8473007414107269
3.87E9                   0.08260468757036943      0.8417457047663515
3.9E9                    0.15392001459511084      0.8300649833112301
3.93E9                   0.2238787479567197       0.8123622699629277
3.96E9                   0.29197460905242817      0.788784832661721
3.99E9                   0.3577166782476884       0.7595222494312077
4.02E9                   0.42063289930297787      0.7248048422069501
4.05E9                   0.48027342403732176      0.6849018245987252
4.08E9                   0.5362137745296162       0.640119181036078
4.11E9                   0.5880578027951984       0.5907972963214968
4.14E9                   0.6354404302428996       0.5373083556490765
4.17E9                   0.6780301516938181       0.48005353519510374
4.2E9                    0.7155312900233881       0.4194600035989849
4.23E9                   0.7476859887089774       0.3559777546773186
4.26E9                   0.7742759301526836       0.29007629273621355
4.29E9                   0.7951237689598867       0.22224119292836375
4.32E9                   0.810094271029822        0.1529705604973846
4.35E9                   0.8190951515969968       0.08277141381135818
4.38E9                   0.8220776078875464       0.012156016238301127
4.41E9                   0.8190365442090919       -0.05836181822826021
4.44E9                   0.8100104890099648       -0.12827042109874334
4.47E9                   0.7950812047406135       -0.19706394331128751
4.5E9                    0.7743729925487166       -0.26424598252106274
4.53E9                   0.7480516953024623       -0.3293331392257628
4.56E9                   0.7163234043596329       -0.39185847657200584
4.59E9                   0.6794328778759493       -0.4513748585196442
4.62E9                   0.6376616811836051       -0.5074581412088282
4.65E9                   0.5913260625065583       -0.5597101933314371
4.68E9                   0.5407745799598044       -0.6077617226031872
4.71E9                   0.486385498086071        -0.651274887384434
4.74E9                   0.4285639739875173       -0.689945674713568
4.77E9                   0.3677390545038737       -0.7235060283038692
4.8E9                    0.3043605065984773       -0.7517257123669644
4.83E9                   0.2388955037391817       -0.7744138989649872
4.86E9                   0.17182519136038882      -0.7914204683171123
4.89E9                   0.1036411552077528       -0.8026370127838401
4.92E9                   0.03484181718787962      -0.80799753673844
4.95E9                   -0.03407121569388174     -0.807478846214562
4.98E9                   -0.10259682267426823     -0.8011006242405436
5.01E9                   -0.17023803345157554     -0.7889251901563893
5.04E9                   -0.23650565736958767     -0.771056943841314
5.07E9                   -0.300921849587337       -0.7476414985686527
5.1E9                    -0.3630235864742769      -0.7188645090614231
5.13E9                   -0.4223660233476183      -0.6849502041286495
5.16E9                   -0.47852570856754917     -0.6461596361090769
5.19E9                   -0.5311036298875511      -0.6027886617738061
5.22E9                   -0.5797280708603668      -0.5551656714091274
5.25E9                   -0.6240572571211981      -0.503649084340416
5.28E9                   -0.6637817744350271      -0.44862462997880004
5.31E9                   -0.6986267416036265      -0.3905024344287181
5.34E9                   -0.7283537225771088      -0.32971393350170203
5.37E9                   -0.7527623629565241      -0.2667086346593115
5.4E9                    -0.7716917376295895      -0.20195075219477757
5.43E9                   -0.7850213983769058      -0.13591574205055168
5.46E9                   -0.7926721131368433      -0.06908676425191736
5.49E9                   -0.7946062918736693      -0.0019511020842435914
5.52E9                   -0.7908280974691997      0.06500343261346996
5.55E9                   -0.7813832434151443      0.13129207894317707
5.58E9                   -0.7663584832750914      0.19643666298349055
5.61E9                   -0.7458807997599359      0.2599690635653167
5.64E9                   -0.7201163035905513      0.3214345829401711
5.67E9                   -0.6892688539473243      0.38039519948490996
5.7E9                    -0.6535784130713674      0.4364326816305555
5.73E9                   -0.6133191478014484      0.48915154334465494
5.76E9                   -0.5687972911899253      0.5381818216059773
5.79E9                   -0.5203487784800961      0.58318165598968
5.82E9                   -0.46833667455735944     0.6238396498706408
5.85E9                   -0.4131484134721052      0.6598769940305668
5.88E9                   -0.3551928741524182      0.6910493361613534
5.91E9                   -0.2948973185249029      0.7171483839484996
5.94E9                   -0.23270421858072618     0.7380032337493194
5.97E9                   -0.16906799783003823     0.7534814204299206
6.0E9                    -0.10445171109489203     0.7634896861434056
