% Model:              three_layers reality at 0.1mm.mph
% Version:            COMSOL 5.6.0.280
% Date:               Mar 11 2022, 10:00
% Table:              表格 1 - 全局计算 1
% freq (Hz)              real(emw.S11) (1)        imag(emw.S11) (1)
300000000                0.6091636416418791       -0.7433659476287217
330000000                0.5419096205755267       -0.7929455252412851
360000000                0.4707540154394472       -0.836511858310264
390000000                0.39621344942054026      -0.8737613750116732
420000000                0.31883726184963984      -0.9044308048419558
450000000                0.23919437180343214      -0.9283053677798082
480000000                0.15787258438903537      -0.9452188712983951
510000000                0.07547314787958666      -0.9550558402766338
540000000                -0.007393926530795803    -0.9577527241955587
570000000                -0.09011458680798726     -0.953298634350598
600000000                -0.17207547646240437     -0.9417356265174084
630000000                -0.2526686545031712      -0.9231585401927829
660000000                -0.33129626562192893     -0.8977144047489003
690000000                -0.40737512881118865     -0.8656014228898603
720000000                -0.4803412102180047      -0.8270675431220434
750000000                -0.5496539466616993      -0.7824086350578213
780000000                -0.6148003869039842      -0.7319662833234294
810000000                -0.6752991188718727      -0.6761252184378654
840000000                -0.73070395150853        -0.6153104058582541
870000000                -0.780607322230066       -0.5499838168806583
900000000                -0.8246434033162         -0.48064090690229294
930000000                -0.8624908814133895      -0.40780683051617983
960000000                -0.893875388889275       -0.332032422885015
990000000                -0.9185715664390797      -0.25388998139767666
1020000000               -0.9364047414679331      -0.1739688806330431
1050000000               -0.9472522083883833      -0.0928710572172226
1080000000               -0.9510441012136142      -0.011206401040904507
1110000000               -0.9477638520340088      0.0704119095682409
1140000000               -0.937448232520929       0.15137209080795713
1170000000               -0.920186979219025       0.2310684167059395
1200000000               -0.8961220068885878      0.3089058244073909
1230000000               -0.8654462176562078      0.38430442566097706
1260000000               -0.8284019172757461      0.4567038873360197
1290000000               -0.7852788527483927      0.5255676472579952
1320000000               -0.7364118891183721      0.5903869317747401
1350000000               -0.6821783455754103      0.6506845445402556
1380000000               -0.6229950142200797      0.7060183973871683
1410000000               -0.5593148870583006      0.7559847568414165
1440000000               -0.49162361846972513     0.8002211829781092
1470000000               -0.420435753423984       0.8384091389568195
1500000000               -0.3462907517957623      0.8702762538709344
1530000000               -0.2697488416374945      0.8955982234162209
1560000000               -0.1913867345087386      0.9142003366765454
1590000000               -0.11179323685019522     0.9259586201106993
1620000000               -0.031564791765878474    0.9308005930377024
1650000000               0.04869901437901625      0.9287056320247425
1680000000               0.12839994666307925      0.9197049445391028
1710000000               0.20694558341555513      0.9038811552247173
1740000000               0.28375371263145616      0.881367510974765
1770000000               0.35825663066983626      0.8523467137353782
1800000000               0.4299053124435638       0.8170493925569366
1830000000               0.49817342369877304      0.7757522287408052
1860000000               0.5625611470806543       0.7287757504356978
1890000000               0.6225987958861499       0.6764818149190869
1920000000               0.677850190747877        0.6192707989547914
1950000000               0.7279157767921061       0.5575785191500815
1980000000               0.7724354604055432       0.4918729061959556
2010000000               0.8110911473794133       0.42265045772321663
2040000000               0.8436089656594729       0.35043249663069737
2070000000               0.8697611589944902       0.2757612618151234
2100000000               0.889367639404826        0.1991958598008362
2130000000               0.9022971889454876       0.12130810658202802
2.16E9                   0.9084683037918634       0.04267828885253977
2.19E9                   0.9078496757686921       -0.03610912517525769
2.22E9                   0.9004603090098713       -0.11446979495291398
2.25E9                   0.8863692719011649       -0.19182380708073893
2.28E9                   0.8656950867371646       -0.2675999346436012
2.31E9                   0.8386047619787892       -0.34123982717483964
2.34E9                   0.80531247414634         -0.41220210233093985
2.37E9                   0.7660779085350257       -0.479966311119994
2.4E9                    0.7212042694626434       -0.5440367500100093
2.43E9                   0.6710359720991868       -0.6039460936782353
2.46E9                   0.615956028815377        -0.659258822596991
2.49E9                   0.5563831436313681       -0.7095744191108868
2.52E9                   0.49276853027225054      -0.7545303032222533
2.55E9                   0.42559247455375027      -0.7938044760111431
2.58E9                   0.35536067106448677      -0.827117837691429
2.61E9                   0.28260037667135374      -0.8542361528901057
2.64E9                   0.20785643308556204      -0.8749716509941319
2.67E9                   0.13168720636839365      -0.8891842710050843
2.7E9                    0.05466047308573359      -0.8967825735687633
2.73E9                   -0.022650741610077497    -0.8977243374501299
2.76E9                   -0.09967237678105559     -0.8920168356982595
2.79E9                   -0.17583359186393235     -0.8797167670322428
2.82E9                   -0.25057103616499854     -0.8609298142463491
2.85E9                   -0.32333308553951295     -0.8358098135924392
2.88E9                   -0.3935839963443387      -0.8045575360289128
2.91E9                   -0.4608079318153546      -0.7674190938834323
2.94E9                   -0.5245128237529226      -0.7246839927515325
2.97E9                   -0.5842340385971142      -0.6766828503433463
3.0E9                    -0.6395378209039534      -0.6237848044147296
3.03E9                   -0.6900244895958262      -0.5663946323248493
3.06E9                   -0.7353313640267332      -0.5049496057572229
3.09E9                   -0.7751353984545288      -0.43991610570502665
3.12E9                   -0.8091555054857441      -0.37178602450243003
3.15E9                   -0.8371545512176577      -0.3010729835051099
3.18E9                   -0.8589410074532801      -0.22830839644763223
3.21E9                   -0.8743702490760674      -0.15403740986105618
3.24E9                   -0.8833454876013914      -0.07881475309496917
3.27E9                   -0.8858183350963982      -0.0032005308115791997
3.3E9                    -0.8817889956592918      0.07224400847507297
3.33E9                   -0.8713060848451442      0.14696069450437907
3.36E9                   -0.8544660804614743      0.22039861485610707
3.39E9                   -0.8314124111945761      0.2920182195081428
3.42E9                   -0.8023341924669888      0.3612953186712388
3.45E9                   -0.7674646216854805      0.4277249435138779
3.48E9                   -0.7270790477574467      0.4908250405616588
3.51E9                   -0.6814927323240103      0.5501399722494317
3.54E9                   -0.6310583222617604      0.6052437982840281
3.57E9                   -0.576163055461886       0.6557433139563519
3.6E9                    -0.5172257234521788      0.7012808243987391
3.63E9                   -0.45469341637855437     0.7415366357226831
3.66E9                   -0.38903807692756565     0.7762312468991155
3.69E9                   -0.3207528910339173      0.8051272286083443
3.72E9                   -0.2503485440449323      0.8280307780011305
3.75E9                   -0.17834937104880969     0.8447929411055756
3.78E9                   -0.10528943090546328     0.8553104968441331
3.81E9                   -0.03170853307502082     0.8595264992620595
3.84E9                   0.041851753440211505     0.8574304767672376
3.87E9                   0.11485208003578383      0.8490582894684077
3.9E9                    0.1867592582809861       0.834491647936787
3.93E9                   0.25705013072121013      0.813857299178141
3.96E9                   0.32521534453355         0.7873258881269928
3.99E9                   0.3907630003152878       0.7551105057451122
4.02E9                   0.45322214961699675      0.7174649376550298
4.05E9                   0.5121461167926598       0.6746816298793021
4.08E9                   0.5671156229611789       0.6270893905624333
4.11E9                   0.6177416927748887       0.5750508480921649
4.14E9                   0.6636683274697707       0.5189596867170827
4.17E9                   0.7045749299131249       0.459237680759323
4.2E9                    0.7401784689377785       0.39633154829199135
4.23E9                   0.770235371075886        0.3307096452958116
4.26E9                   0.7945431286597469       0.2628585217208597
4.29E9                   0.8129416140537302       0.19327936245594235
4.32E9                   0.8253140916319268       0.12248433736475386
4.35E9                   0.8315879214110272       0.05099288548179131
4.38E9                   0.8317349506498541       -0.020672041022087802
4.41E9                   0.8257715920434283       -0.09198774799732248
4.44E9                   0.813758588747578        -0.16243556107367352
4.47E9                   0.7958004676927075       -0.23150455359145267
4.5E9                    0.772044683776371        -0.2986952163646367
4.53E9                   0.7426804589341679       -0.36352304431834104
4.56E9                   0.7079373220438822       -0.42552201451261534
4.59E9                   0.6680833580701542       -0.48424792975849473
4.62E9                   0.6234231777589678       -0.5392816021346025
4.65E9                   0.574295622039313        -0.5902318517342752
4.68E9                   0.5210712182204319       -0.6367382972436141
4.71E9                   0.46414940747222033      -0.678473917096028
4.74E9                   0.40395556488266426      -0.7151473624130857
4.77E9                   0.340937835104657        -0.7465050051362413
4.8E9                    0.2755638069644409       -0.7723327075762473
4.83E9                   0.20831705119470278      -0.7924573013684495
4.86E9                   0.13969354575819395      -0.8067477656611317
4.89E9                   0.07019801376601897      -0.815116095845945
4.92E9                   3.401999484539786E-4     -0.817517855631797
4.95E9                   -0.06936888753786796     -0.8139524071003156
4.98E9                   -0.13842074184728032     -0.8044628154921792
5.01E9                   -0.20631310015585724     -0.7891354281177381
5.04E9                   -0.2725536351160792      -0.7680991295611879
5.07E9                   -0.3366635658425858      -0.7415242783927899
5.1E9                    -0.3981811598196851      -0.7096213336080338
5.13E9                   -0.4566650977946868      -0.6726391820827929
5.16E9                   -0.5116976751709539      -0.6308631813074105
5.19E9                   -0.5628878155291049      -0.5846129341583259
5.22E9                   -0.60987387390061        -0.5342398147296662
5.25E9                   -0.6523262100647254      -0.4801242655783382
5.28E9                   -0.6899495142200726      -0.42267288762372923
5.31E9                   -0.7224848689605459      -0.36231534464302934
5.34E9                   -0.7497115327540634      -0.2995011051291184
5.37E9                   -0.7714484312320752      -0.23469604573218109
5.4E9                    -0.7875553442039095      -0.16837894237148918
5.43E9                   -0.7979337786588561      -0.1010378770221041
5.46E9                   -0.8025275210703597      -0.03316658989933746
5.49E9                   -0.8013228659305128      0.03473919272216912
5.52E9                   -0.7943485209928965      0.10218542418098925
5.55E9                   -0.7816751933916728      0.16868336687381758
5.58E9                   -0.7634148640516999      0.23375315652410666
5.61E9                   -0.7397197607620184      0.2969272744213029
5.64E9                   -0.7107810426003468      0.3577539029352197
5.67E9                   -0.6768272098821247      0.41580014210431354
5.7E9                    -0.6381222543743397      0.47065506738393914
5.73E9                   -0.59496356444897        0.5219326099942095
5.76E9                   -0.5476795998629388      0.5692742416379276
5.79E9                   -0.49662735198694474     0.6123514446967162
5.82E9                   -0.44218960784281924     0.6508679488116758
5.85E9                   -0.38477203998061554     0.6845617157990527
5.88E9                   -0.324800147775622       0.7132066578600991
5.91E9                   -0.26271607743579944     0.7366140786899238
5.94E9                   -0.19897534839929937     0.7546338314164663
5.97E9                   -0.1340435119183356      0.7671551912333476
6.0E9                    -0.06839276601553408     0.7741074426087976
