% Model:              three_layers reality at 0.1mm.mph
% Version:            COMSOL 5.6.0.280
% Date:               Mar 11 2022, 11:17
% Table:              表格 1 - 全局计算 1
% freq (Hz)              real(emw.S11) (1)        imag(emw.S11) (1)
300000000                0.5476168035898333       -0.7339922663602407
330000000                0.4784296525929193       -0.779307367841717
360000000                0.40563251176941045      -0.8182355528233187
390000000                0.32979131420168567      -0.8504835523243364
420000000                0.2515002689295031       -0.8758086037058628
450000000                0.1713763574512754       -0.8940211274665106
480000000                0.09005387583301144      -0.9049868709544973
510000000                0.008178963018475472     -0.9086285291733346
540000000                -0.07359590197116682     -0.904926845731281
570000000                -0.1546174284497086      -0.8939211930219471
600000000                -0.23423704501133216     -0.8757096299470191
630000000                -0.3118164030408216      -0.8504484358329674
660000000                -0.3867328131310632      -0.818351122079341
690000000                -0.45838457331908045     -0.7796869255930079
720000000                -0.5261961427741347      -0.7347787928262737
750000000                -0.5896231141915718      -0.6840008676452026
780000000                -0.6481569380873607      -0.6277755008417196
810000000                -0.7013293512104201      -0.5665698054391906
840000000                -0.7487164646255104      -0.5008917859011845
870000000                -0.7899424678777406      -0.4312860758674112
900000000                -0.8246829098972758      -0.3583293230131299
930000000                -0.8526675206352397      -0.2826252650909045
960000000                -0.8736825424871126      -0.20479954477762377
990000000                -0.8875725456787507      -0.1254943150175073
1020000000               -0.8942417076488717      -0.0453626892047645
1050000000               -0.89365454274127        0.03493690744329232
1080000000               -0.885836074884961       0.114746426965216
1110000000               -0.8708714527400909      0.19341387040253635
1140000000               -0.8489050133861396      0.2702988836313232
1170000000               -0.8201388071820745      0.34477822105091427
1200000000               -0.7848306027526736      0.41625102225883304
1230000000               -0.7432913970919994      0.48414384988416537
1260000000               -0.6958824610940479      0.5479154405969282
1290000000               -0.6430119559766118      0.6070611251060496
1320000000               -0.5851311600985979      0.6611168781480308
1350000000               -0.5227303493567822      0.7096629643454223
1380000000               -0.4563343772861102      0.7523271513080554
1410000000               -0.38649800288316155     0.7887874671905913
1440000000               -0.3138010153840387      0.8187744856277951
1470000000               -0.23884320620305566     0.8420731264701005
1500000000               -0.16223923770110496     0.8585239665819894
1530000000               -0.08461345764048539     0.8680240602331497
1560000000               -0.006594707070575013    0.8705272735254866
1590000000               0.0711888327910339       0.8660441420746912
1620000000               0.14811471127473227      0.854641265359736
1650000000               0.22357115634254435      0.8364402548418847
1680000000               0.2969618620792579       0.8116162563077346
1710000000               0.3677105815335736       0.7803960695770322
1740000000               0.4352654937249268       0.7430558910460436
1770000000               0.4991033171265466       0.6999187063515236
1800000000               0.5587331452737813       0.651351361778076
1830000000               0.6136999833132581       0.5977613440604864
1860000000               0.6635879675330891       0.5395932987688973
1890000000               0.7080232527524978       0.4773253178673354
1920000000               0.7466765552764223       0.41146502707811666
1950000000               0.7792653418313095       0.3425455033111348
1980000000               0.8055556569412211       0.27112105258105
2010000000               0.8253635838212059       0.19776287777917848
2040000000               0.8385563354948897       0.12305466577387503
2070000000               0.8450529749625887       0.04758812214967117
2100000000               0.8448247647733865       -0.028041517948773645
2130000000               0.8378951481630399       -0.10323997583187972
2.16E9                   0.8243393653331019       -0.1774183850358511
2.19E9                   0.8042837100603276       -0.24999769074664774
2.22E9                   0.7779044332401913       -0.32041296758351423
2.25E9                   0.7454263013855741       -0.3881176312176178
2.28E9                   0.7071208192650893       -0.45258752070067065
2.31E9                   0.6633041265679442       -0.5133248299037912
2.34E9                   0.6143345784854113       -0.5698618680553011
2.37E9                   0.5606100185063397       -0.6217646312492926
2.4E9                    0.502564748281915        -0.6686361671441471
2.43E9                   0.440666193687953        -0.7101197125407197
2.46E9                   0.375411259820482        -0.745901574691977
2.49E9                   0.30732236496638576      -0.7757137091725586
2.52E9                   0.23694315474386782      -0.7993359195942707
2.55E9                   0.1648339342374932       -0.816597577858175
2.58E9                   0.09156692309806261      -0.8273787624293001
2.61E9                   0.017721513039655436     -0.8316107689474855
2.64E9                   -0.05612026790356239     -0.8292760691991001
2.67E9                   -0.1293779640904887      -0.8204079250903158
2.7E9                    -0.20147663201918542     -0.8050898981318011
2.73E9                   -0.27185072811251293     -0.7834553732547918
2.76E9                   -0.3399481732042488      -0.755687010520981
2.79E9                   -0.4052346811650736      -0.7220158998942505
2.82E9                   -0.46719826090657685     -0.6827202051351116
2.85E9                   -0.5253537029279779      -0.6381231974027842
2.88E9                   -0.579246867233438       -0.5885906984874821
2.91E9                   -0.6284586497828443      -0.5345280191616892
2.94E9                   -0.6726085664440116      -0.47637648947390465
2.97E9                   -0.7113579315694709      -0.41460966180517334
3.0E9                    -0.7444126237939379      -0.3497292471248285
3.03E9                   -0.7715254342543653      -0.2822608303689247
3.06E9                   -0.7924979903127519      -0.2127494040047808
3.09E9                   -0.8071822458923983      -0.14175475744909946
3.12E9                   -0.8154815295568956      -0.06984676093604057
3.15E9                   -0.8173511432006368      0.002399415253710973
3.18E9                   -0.8127985076393703      0.07440810374305018
3.21E9                   -0.8018828555660793      0.14560792140672857
3.24E9                   -0.7847144770800935      0.21543648516815594
3.27E9                   -0.7614535277675867      0.2833450189382762
3.3E9                    -0.7323084139392719      0.34880280978143186
3.33E9                   -0.6975337740435021      0.4113014731413113
3.36E9                   -0.6574280791677553      0.47035898988741764
3.39E9                   -0.6123308792700151      0.5255234803595138
3.42E9                   -0.5626197249197021      0.5763766841544135
3.45E9                   -0.5087067972008168      0.6225371177373316
3.48E9                   -0.45103528081962496     0.6636628858237987
3.51E9                   -0.3900755175046821      0.6994541264132947
3.54E9                   -0.32632097825043566     0.729655073633514
3.57E9                   -0.2602840939724878      0.7540557269187301
3.6E9                    -0.19249198469746034     0.7724931194756814
3.63E9                   -0.12348212702828398     0.7848521836374487
3.66E9                   -0.05379799890481163     0.791066215006456
3.69E9                   0.016015261071830978     0.7911169414501261
3.72E9                   0.08541514479444495      0.7850342064765714
3.75E9                   0.15386598384644828      0.7728952791499657
3.78E9                   0.2208430471116154       0.7548238044518696
3.81E9                   0.28583649916661996      0.7309884089103648
3.84E9                   0.34835519320814684      0.7016009768908521
3.87E9                   0.4079302726252205       0.6669146137078242
3.9E9                    0.4641185549530249       0.6272213133750865
3.93E9                   0.5165056715992314       0.5828493517535979
3.96E9                   0.5647089370112044       0.5341604303899693
3.99E9                   0.6083799233392853       0.4815466018262144
4.02E9                   0.647206721416994        0.42542701289293006
4.05E9                   0.6809158768117403       0.3662445065251546
4.08E9                   0.7092739994932029       0.30446212343771806
4.11E9                   0.7320890555736576       0.24055954107322283
4.14E9                   0.7492113565142262       0.1750294791933297
4.17E9                   0.7605342630610838       0.10837409128108362
4.2E9                    0.7659946174143197       0.04110135234546132
4.23E9                   0.7655729099747888       -0.026278550310130256
4.26E9                   0.7592931801927982       -0.09325681524712914
4.29E9                   0.7472226479368317       -0.15932960060777615
4.32E9                   0.7294710735082369       -0.22400155489028728
4.35E9                   0.7061898490795475       -0.2867892841869972
4.38E9                   0.6775708286047689       -0.3472247373399971
4.41E9                   0.6438449043653911       -0.4048584945001616
4.44E9                   0.6052803357241854       -0.45926294787631883
4.47E9                   0.562180831280511        -0.5100353630963094
4.5E9                    0.5148833820839936       -0.5568008057104871
4.53E9                   0.4637558435222964       -0.5992149107413541
4.56E9                   0.4091942672887884       -0.6369664670195866
4.59E9                   0.35161999202928773      -0.6697797838631536
4.62E9                   0.2914765098289772       -0.697416807132335
4.65E9                   0.22922613403960881      -0.7196789546008538
4.68E9                   0.16534650038559795      -0.736408646472354
4.71E9                   0.10032693711792878      -0.7474905144143016
4.74E9                   0.0346647403658718       -0.7528522804972521
4.77E9                   -0.03113861150306878     -0.7524653040967284
4.8E9                    -0.09658127523533544     -0.7463447990273814
4.83E9                   -0.16116486707604738     -0.734549724168891
4.86E9                   -0.22439827242104526     -0.7171823492072074
4.89E9                   -0.2858014192381152      -0.6943874944963346
4.92E9                   -0.344908991108568       -0.6663514422392158
4.95E9                   -0.4012740516337447      -0.6333005166754632
4.98E9                   -0.4544715477934279      -0.5954993339694683
5.01E9                   -0.5041016568556504      -0.5532487275602249
5.04E9                   -0.5497929403293594      -0.5068833608693644
5.07E9                   -0.5912052690587163      -0.45676904580803335
5.1E9                    -0.6280324860862919      -0.4032997918283006
5.13E9                   -0.6600047779748938      -0.3468946161624146
5.16E9                   -0.6868907313821243      -0.28799415038685655
5.19E9                   -0.7084990589641366      -0.22705708091852178
5.22E9                   -0.7246799863392432      -0.1645564603130848
5.25E9                   -0.7353262976541539      -0.10097592253960506
5.28E9                   -0.7403740396192017      -0.03680583011409027
5.31E9                   -0.7398028822076826      0.027460623077951902
5.34E9                   -0.7336361303190264      0.09133132965849838
5.37E9                   -0.721940377806208       0.15431917965881903
5.4E9                    -0.7048247961105258      0.2159459298264392
5.43E9                   -0.6824400552617865      0.2757459901402854
5.46E9                   -0.654976883953081       0.33327008266502056
5.49E9                   -0.6226642855069722      0.38808872831493274
5.52E9                   -0.5857674358950063      0.4397955210136455
5.55E9                   -0.5445852973972162      0.4880101555300549
5.58E9                   -0.49944798646399546     0.5323811838771806
5.61E9                   -0.45071393634265616     0.5725884849996649
5.64E9                   -0.3987668932522406      0.6083454425979092
5.67E9                   -0.3440127788108555      0.6394008343967021
5.7E9                    -0.2868764417929812      0.665540440218067
5.73E9                   -0.22779831227608735     0.6865883734900479
5.76E9                   -0.16723096574003124     0.7024081316147565
5.79E9                   -0.1056356081206987      0.7129033491878615
5.82E9                   -0.04347850495376165     0.7180182316576801
5.85E9                   0.018772606647089952     0.7177376509323787
5.88E9                   0.08065207400947383      0.7120868987003541
5.91E9                   0.14169980389175338      0.7011311115388659
5.94E9                   0.2014646177345341       0.6849743962828202
5.97E9                   0.2595074636110134       0.6637586898208023
6.0E9                    0.31540447479228073      0.6376623846086403
