% Model:              three_layers reality at 0.1mm.mph
% Version:            COMSOL 5.6.0.280
% Date:               Mar 2 2022, 16:39
% Table:              表格 1 - 全局计算 1
% freq (Hz)              real(emw.S11) (1)        imag(emw.S11) (1)
300000000                0.5956744987618177       -0.7857850324348387
330000000                0.5210440859095783       -0.8374481892163406
360000000                0.4419838888618586       -0.8820550450145277
390000000                0.35915605300512415      -0.9192262055726641
420000000                0.2732557721690478       -0.9486436591668008
450000000                0.18500565026713112      -0.9700538303462297
480000000                0.09514976096903799      -0.9832701061727624
510000000                0.0044474538735624234    -0.9881748086444729
540000000                -0.0863330429373832      -0.9847205884826625
570000000                -0.17642117050101708     -0.972931217916865
600000000                -0.26505068078265287     -0.9529017638560374
630000000                -0.35146631312853627     -0.9247981274039945
660000000                -0.4349304433147378      -0.8888559411739356
690000000                -0.5147296408467428      -0.845378822035332
720000000                -0.5901810686462559      -0.7947359837457797
750000000                -0.6606386585894483      -0.737359221217303
780000000                -0.7254989967231991      -0.6737392857090408
810000000                -0.784206853116989       -0.6044216781401697
840000000                -0.8362602938834741      -0.5300018953382163
870000000                -0.8812153161757843      -0.45112017180573016
900000000                -0.918689951634817       -0.36845576673929004
930000000                -0.948367789335097       -0.2827208526886804
960000000                -0.9700008757167311      -0.19465406842630106
990000000                -0.9834119564978079      -0.10501380350031607
1020000000               -0.9884960335569339      -0.014571286346018243
1050000000               -0.9852212185196203      0.07589644941135457
1080000000               -0.9736288737612         0.1656136437340544
1110000000               -0.9538330407990765      0.2538128569521216
1140000000               -0.9260191652732808      0.3397419078800532
1170000000               -0.8904421367332415      0.4226706287617562
1200000000               -0.8474236701043818      0.501897365457812
1230000000               -0.7973490637376026      0.576755155657237
1260000000               -0.7406633763830104      0.6466175229214085
1290000000               -0.6778670717990061      0.7109038306871023
1320000000               -0.6095111853626531      0.7690841469214761
1350000000               -0.5361920714103483      0.8206835776353096
1380000000               -0.4585457934955957      0.8652860350534912
1410000000               -0.377242222048928       0.9025374141543581
1440000000               -0.2929789050329625      0.9321481592519381
1470000000               -0.20647477745117976     0.9538952099918108
1500000000               -0.1184637745759055      0.9676233236835863
1530000000               -0.029688412204523475    0.9732457778829424
1560000000               0.059106605426593545     0.970744463723267
1590000000               0.1471806924618198       0.9601693863841869
1620000000               0.23380354928446573      0.9416375943535098
1650000000               0.3182611416780855       0.9153315636631737
1680000000               0.399861446103124        0.8814970671114302
1710000000               0.47793992046330697      0.8404405615839221
1740000000               0.5518646644019898       0.7925261290099211
1770000000               0.621041237799592        0.7381720082723761
1800000000               0.6849171106278953       0.677846756614306
1830000000               0.7429857217107959       0.6120650797389385
1860000000               0.7947901280031939       0.5413833700877678
1890000000               0.8399262299493775       0.4663949926030645
1920000000               0.8780455620689207       0.3877253569507888
1950000000               0.9088576415382932       0.30602681427974976
1980000000               0.9321318707675271       0.22197341573063648
2010000000               0.9476989933271245       0.13625556843572395
2040000000               0.955452105827078        0.04957462269425427
2070000000               0.9553472314098812       -0.03736257883440223
2100000000               0.947403463084638        -0.12384916367147902
2130000000               0.931702686006431        -0.20918368409176807
2.16E9                   0.9083888849130255       -0.2926755530323814
2.19E9                   0.8776670325810962       -0.37365046068408864
2.22E9                   0.8398015328096751       -0.45145577706637297
2.25E9                   0.7951141553158909       -0.5254659354016032
2.28E9                   0.7439813597443767       -0.5950877454266337
2.31E9                   0.6868308959786955       -0.6597654897944054
2.34E9                   0.6241376469873313       -0.7189855320294545
2.37E9                   0.5564188876428139       -0.7722801049744751
2.4E9                    0.4842293939418422       -0.8192300919624806
2.43E9                   0.4081569264727069       -0.8594669873328252
2.46E9                   0.32881833537145994      -0.8926745932989077
2.49E9                   0.24685602111077626      -0.9185910226970443
2.52E9                   0.16293415647314352      -0.9370111682770258
2.55E9                   0.07773419080425442      -0.9477893185900625
2.58E9                   -0.008050454333127987    -0.9508414165476267
2.61E9                   -0.0937202721130662      -0.9461465951570915
2.64E9                   -0.17857582441180908     -0.9337478681434892
2.67E9                   -0.2619239170956857      -0.9137520213849604
2.7E9                    -0.3430836578584197      -0.8863288078402989
2.73E9                   -0.4213923331190538      -0.8517095378717269
2.76E9                   -0.4962110745718582      -0.8101851265929674
2.79E9                   -0.5669302932355783      -0.7621036349082282
2.82E9                   -0.6329748544903897      -0.7078673274487102
2.85E9                   -0.6938089607679262      -0.6479292667463592
2.88E9                   -0.7489407034886092      -0.5827894648516947
2.91E9                   -0.7979262431426652      -0.5129906185312195
2.94E9                   -0.8403735763451062      -0.439113460110768
2.97E9                   -0.8759458504819142      -0.3617717622271111
3.0E9                    -0.9043641900686101      -0.2816070403571757
3.03E9                   -0.9254100034433019      -0.19928300228583265
3.06E9                   -0.9389267441071794      -0.11547979770367932
3.09E9                   -0.9448211072020074      -0.030888124750219105
3.12E9                   -0.943063648517361       0.05379674755405881
3.15E9                   -0.9336888205226102      0.13788098067066984
3.18E9                   -0.9167944271619595      0.22067813138696188
3.21E9                   -0.8925405061841136      0.3015150208541738
3.24E9                   -0.8611476543622834      0.3797374506540049
3.27E9                   -0.8228948168400273      0.4547157116999809
3.3E9                    -0.7781165668801582      0.5258498352739941
3.33E9                   -0.7271999064399532      0.5925745392872303
3.36E9                   -0.6705806214799543      0.6543638264123594
3.39E9                   -0.6087392288525992      0.7107351941384601
3.42E9                   -0.5421965545346441      0.7612534196556795
3.45E9                   -0.47150898622425486     0.8055338850777555
3.48E9                   -0.3972634472744826      0.8432454111911657
3.51E9                   -0.3200721438184573      0.8741125712650368
3.54E9                   -0.24056714267526635     0.8979174612397538
3.57E9                   -0.15939484322567044     0.9145009097556391
3.6E9                    -0.07721041118651328     0.9237631210798393
3.63E9                   0.00532775577253517      0.9256637558930619
3.66E9                   0.0875634620977701       0.9202214677044005
3.69E9                   0.16884798487010003      0.9075129247250731
3.72E9                   0.24854512552448932      0.887671357015562
3.75E9                   0.32603599715998044      0.8608846762752315
3.78E9                   0.40072351234705295      0.8273932212920937
3.81E9                   0.4720365481029985       0.7874871863176246
3.84E9                   0.5394337791486752       0.7415037913709472
3.87E9                   0.6024071870441141       0.6898242502786283
3.9E9                    0.6604852689225024       0.632870581310625
3.93E9                   0.7132359799536637       0.5711022863170896
3.96E9                   0.760269443251864        0.5050129010795027
3.99E9                   0.8012404479647377       0.4351263991107282
4.02E9                   0.8358507337683954       0.3619934207982892
4.05E9                   0.8638510354373932       0.28618730322628133
4.08E9                   0.8850428424432029       0.20829990208249183
4.11E9                   0.8992798212324058       0.12893721996162136
4.14E9                   0.9064688529508622       0.048714877905496334
4.17E9                   0.9065706539954914       -0.03174651669032817
4.2E9                    0.8995999658595821       -0.11182604589144092
4.23E9                   0.8856253189703467       -0.19090714322404928
4.26E9                   0.8647683885463266       -0.26838219389334533
4.29E9                   0.8372029667990468       -0.34365703767219724
4.32E9                   0.8031535751875485       -0.4161553507227931
4.35E9                   0.7628937349557727       -0.4853228902446152
4.38E9                   0.7167439070022052       -0.5506315881892915
4.41E9                   0.6650691063590447       -0.6115834777134785
4.44E9                   0.6082761941547066       -0.6677144306516771
4.47E9                   0.5468108515577372       -0.7185976782223406
4.5E9                    0.4811542449774427       -0.7638470826228895
4.53E9                   0.4118193986209828       -0.8031201249619951
4.56E9                   0.3393472979963161       -0.8361205755935001
4.59E9                   0.264302755078948        -0.8626008162443294
4.62E9                   0.18727007149842942      -0.8823637891158816
4.65E9                   0.10884853929074777      -0.895264555663867
4.68E9                   0.029647818613592492     -0.9012114557252628
4.71E9                   -0.049716771991714384    -0.9001668640918175
4.74E9                   -0.1286290228960718      -0.8921475443070709
4.77E9                   -0.20647663377125003     -0.8772245974865704
4.8E9                    -0.2826560239949562      -0.8555229982481372
4.83E9                   -0.35657712570619005     -0.8272207036293576
4.86E9                   -0.42766812244981267     -0.7925473181077657
4.89E9                   -0.495380084280829       -0.7517823014548054
4.92E9                   -0.5591914397916194      -0.7052527166508973
4.95E9                   -0.6186122203261132      -0.653330530610262
4.98E9                   -0.6731880133325966      -0.5964294978881005
5.01E9                   -0.7225035707129361      -0.5350016733457872
5.04E9                   -0.7661860326334744      -0.46953361104219654
5.07E9                   -0.8039077453639693      -0.40054231091993686
5.1E9                    -0.8353886696907843      -0.32857097070404073
5.13E9                   -0.8603983896719645      -0.25418458832232205
5.16E9                   -0.8787577355347445      -0.17796544323128358
5.19E9                   -0.8903400270277285      -0.100508469942008
5.22E9                   -0.895071927254909       -0.022416531174043724
5.25E9                   -0.8929338798108581      0.055704393535380294
5.28E9                   -0.8839600943108771      0.1332500673383753
5.31E9                   -0.8682380539960773      0.20962284354467495
5.34E9                   -0.8459075426083514      0.28423642619573747
5.37E9                   -0.8171592165830778      0.3565204710899491
5.4E9                    -0.7822327705087632      0.4259249729599927
5.43E9                   -0.7414147507060049      0.4919244103454989
5.46E9                   -0.6950360634360694      0.5540216422366573
5.49E9                   -0.6434692068092094      0.6117515622541511
5.52E9                   -0.5871252372177489      0.6646845151899715
5.55E9                   -0.5264504684323067      0.7124294702353995
5.58E9                   -0.4619228975137449      0.75463692992749
5.61E9                   -0.39404835666434146     0.7910015384434391
5.64E9                   -0.3233564030972484      0.8212643409105337
5.67E9                   -0.2503959782027453      0.845214640097038
5.7E9                    -0.17573088982686613     0.862691401421602
5.73E9                   -0.09993519181766396     0.873584173998792
5.76E9                   -0.023588545497660186    0.8778335230387324
5.79E9                   0.05272835840962795      0.8754310000382429
5.82E9                   0.12843826172487738      0.8664186999970632
5.85E9                   0.2029716596530772       0.8508884596786767
5.88E9                   0.2757709802430039       0.8289807370221571
5.91E9                   0.3462946307583627       0.800883188503177
5.94E9                   0.4140209111860772       0.7668289414032472
5.97E9                   0.478451778166723        0.7270945499606687
6.0E9                    0.5391164263549133       0.6819976287645446
