% Model:              three_layers reality at 0.1mm.mph
% Version:            COMSOL 5.6.0.280
% Date:               Mar 2 2022, 16:37
% Table:              表格 1 - 全局计算 1
% freq (Hz)              real(emw.S11) (1)        imag(emw.S11) (1)
300000000                0.5955493601494187       -0.7859908951317407
330000000                0.5208784792176264       -0.8376610797187155
360000000                0.441775350125204        -0.8822687162564293
390000000                0.3589030434301346       -0.9194340609991827
420000000                0.27295769588677404      -0.9488388762314426
450000000                0.18466286285931519      -0.9702294808769747
480000000                0.09476356855590069      -0.9834192744259319
510000000                0.004020101607521554     -0.988290707395405
540000000                -0.08679839332552763     -0.9847966726887778
570000000                -0.17692047447424955     -0.9729612952046148
600000000                -0.26557905618729016     -0.9528801008382086
630000000                -0.35201809671569795     -0.9247195506906849
660000000                -0.43549925829193903     -0.888715931852236
690000000                -0.5153084748574861      -0.845173602415115
720000000                -0.5907623615070565      -0.79446259515982
750000000                -0.6612143989246129      -0.7370155916830465
780000000                -0.7260608263082278      -0.6733242864589444
810000000                -0.7847461777753113      -0.603935168027327
840000000                -0.8367683994992394      -0.5294447523796635
870000000                -0.8816834883853197      -0.4504943111779599
900000000                -0.9191095975776084      -0.36776414481797604
930000000                -0.9487305598173994      -0.28196745690046343
960000000                -0.9702987861227128      -0.19384389284403963
990000000                -0.9836375047417159      -0.1041528104194378
1020000000               -0.9886423134387986      -0.013666354154993086
1050000000               -0.9852820268594874      0.07683759141639829
1080000000               -0.9735988097941514      0.16658249280107248
1110000000               -0.953707596424941       0.254800225589811
1140000000               -0.9257948048832776      0.34073802271849324
1170000000               -0.8901163655098634      0.42366523820414115
1200000000               -0.846995089824678       0.5028798547850272
1230000000               -0.7968174153754067      0.5777146679437364
1260000000               -0.7400295689078287      0.6475430842839445
1290000000               -0.6771331968792123      0.7117844781387954
1320000000               -0.6086805177697538      0.7699090572695533
1350000000               -0.5352690552182996      0.8214421957342588
1380000000               -0.457536014343759       0.8659681998234355
1410000000               -0.3761523658225673      0.9031334808867122
1440000000               -0.291816703663255       0.9326491166937414
1470000000               -0.2052489425077571      0.9542927909189605
1500000000               -0.11718391954543855     0.9679101077261255
1530000000               -0.028364964486159928    0.9734152855004858
1560000000               0.0604625017354346       0.970791240389546
1590000000               0.14855728186947026      0.9600890761658878
1620000000               0.23518857700378926      0.941427002217022
1650000000               0.31964197135709527      0.9149887059822799
1680000000               0.4012251818545991       0.8810212099981035
1710000000               0.47927353194974814      0.8398322467937295
1740000000               0.553155113695941        0.7917871873153693
1770000000               0.6222756068205744       0.7373055602863834
1800000000               0.6860827278877561       0.6768572012216586
1830000000               0.7440702872453994       0.6109580703381055
1860000000               0.7957818353556967       0.5401657789728567
1890000000               0.8408138840900794       0.46507486397238307
1920000000               0.8788186922989397       0.38631184898889825
1950000000               0.90950660837145         0.30453013100087883
1980000000               0.9326479659289468       0.22040472929411214
2010000000               0.9480745320907151       0.1346269327536918
2040000000               0.9556805110345117       0.047898879267842115
2070000000               0.955423108696559        -0.039071901796242536
2100000000               0.9473226670975198       -0.1255779577681392
2130000000               0.9314623777484684       -0.2109173717663511
2.16E9                   0.9079875808050386       -0.29439920224004884
2.19E9                   0.8771046463133108       -0.3753489028106265
2.22E9                   0.8390794113779944       -0.4531137286904346
2.25E9                   0.7942351103000495       -0.5270681260959672
2.28E9                   0.7429496932696005       -0.5966190555010215
2.31E9                   0.6856524173082317       -0.6612111027334514
2.34E9                   0.6228196709342666       -0.7203311043084949
2.37E9                   0.5549702026269575       -0.7735119495323822
2.4E9                    0.48266018985195097      -0.8203353623339686
2.43E9                   0.40647868249852465      -0.860433843204115
2.46E9                   0.3270436811264823       -0.8934923314607517
2.49E9                   0.24499859138480354      -0.9192501698456313
2.52E9                   0.1610084557153801       -0.9375035453671139
2.55E9                   0.07575547204714327      -0.9481080918272572
2.58E9                   -0.010066301153536728    -0.9509811464410499
2.61E9                   -0.09575683112711993     -0.9461032876668534
2.64E9                   -0.18061627108031023     -0.9335190260282666
2.67E9                   -0.2639511452891597      -0.9133366912201005
2.7E9                    -0.34508041704905        -0.8857276180930088
2.73E9                   -0.42334137419643547     -0.8509247244600893
2.76E9                   -0.4980953018584696      -0.8092205436217595
2.79E9                   -0.5687329201561937      -0.7609647492664899
2.82E9                   -0.6346795603426653      -0.7065611967234355
2.85E9                   -0.6954000463085358      -0.6464645003548026
2.88E9                   -0.7504032431614924      -0.5811761686851861
2.91E9                   -0.7992462320150607      -0.5112403236051529
2.94E9                   -0.8415380699238029      -0.43723903595238306
2.97E9                   -0.8769430957495215      -0.3597873158825456
3.0E9                    -0.905183746199655       -0.27952780208222733
3.03E9                   -0.9260428508198052      -0.19712519909357099
3.06E9                   -0.9393653803809774      -0.11326051613776736
3.09E9                   -0.9450596293372847      -0.028625164297035367
3.12E9                   -0.9430978199013968      0.05608502879999975
3.15E9                   -0.9335161224417601      0.14017582647030327
3.18E9                   -0.9164140941363232      0.22296055221261915
3.21E9                   -0.8919535448836472      0.303765961360884
3.24E9                   -0.860356846052611       0.3819379580325545
3.27E9                   -0.8219047035366973      0.4568471031831785
3.3E9                    -0.7769334215942392      0.5278938631941703
3.33E9                   -0.7258316880989866      0.5945135521739976
3.36E9                   -0.6690369152232484      0.6561809248360295
3.39E9                   -0.6070311724739561      0.7124143801744683
3.42E9                   -0.5403367518790138      0.7627797390003219
3.45E9                   -0.469511408231491       0.8068935610405948
3.48E9                   -0.3951433213250457      0.8444259698034277
3.51E9                   -0.31784583185144444     0.8751029567804736
3.54E9                   -0.23825200848089045     0.8987081411661791
3.57E9                   -0.1570091093347278      0.9150839683511557
3.6E9                    -0.0747730058330042      0.9241323400350497
3.63E9                   0.007797360828440781     0.9258146806838046
3.66E9                   0.09004542174292887      0.9201514579841394
3.69E9                   0.17132225718390118      0.9072211871381944
3.72E9                   0.2509916525867279       0.887158958987755
3.75E9                   0.3284348875527684       0.8601545396691676
3.78E9                   0.4030552223759209       0.8264500952963616
3.81E9                   0.4742820584475748       0.786337599575976
3.84E9                   0.5415747635489606       0.7401559841330156
3.87E9                   0.6044261696852203       0.6882880882956467
3.9E9                    0.6623657677253946       0.6311574540973766
3.93E9                   0.7149626337955518       0.5692249931879224
3.96E9                   0.7618281223627914       0.5029855286981416
3.99E9                   0.8026183479633744       0.43296419416377674
4.02E9                   0.8370364548916336       0.3597126606702361
4.05E9                   0.8648346491051261       0.283805166530705
4.08E9                   0.8858159473740301       0.20583433977322274
4.11E9                   0.8998355909125583       0.1264068267990822
4.14E9                   0.9068020755336982       0.046138763487860404
4.17E9                   0.9066777649123176       -0.034348858280542724
4.2E9                    0.8994790727500885       -0.11443486849964862
4.23E9                   0.8852762181359108       -0.19350258337730739
4.26E9                   0.8641925720186155       -0.27094440759292415
4.29E9                   0.8364036192654212       -0.3461663385256949
4.32E9                   0.8021355603031236       -0.4185923484643727
4.35E9                   0.7616635709134223       -0.48766862859838955
4.38E9                   0.7153097314569025       -0.5528676811908111
4.41E9                   0.6634406309199794       -0.61369224375516
4.44E9                   0.606464648646249        -0.6696790236770473
4.47E9                   0.5448289181085464       -0.7204022156083001
4.5E9                    0.479015981878427        -0.7654767692331715
4.53E9                   0.40954015374359437      -0.8045613727525464
4.56E9                   0.3369436115545916       -0.8373611179154452
4.59E9                   0.26179225154977087      -0.8636298157654642
4.62E9                   0.1846713407504993       -0.8831719380284488
4.65E9                   0.10618100725303387      -0.8958441667125628
4.68E9                   0.026931608181614664     -0.9015565425731641
4.71E9                   -0.052460988706821615    -0.9002732096869996
4.74E9                   -0.13138017967318413     -0.8920127562244909
4.77E9                   -0.2092134313094011      -0.8768481495755321
4.8E9                    -0.2853570955839465      -0.8549062582300371
4.83E9                   -0.3592212064893751      -0.8263669464239005
4.86E9                   -0.43023422144642876     -0.7914617246019711
4.89E9                   -0.4978476584645785      -0.7504719421577617
4.92E9                   -0.5615405693456509      -0.7037265193754344
4.95E9                   -0.6208237838266093      -0.6515992310752516
4.98E9                   -0.6752438610530987      -0.5945055721008979
5.01E9                   -0.7243866936017721      -0.5328992508869742
5.04E9                   -0.7678807239708946      -0.46726836896613994
5.07E9                   -0.8053997518379877      -0.39813134878891904
5.1E9                    -0.836665328675251       -0.3260326682827989
5.13E9                   -0.8614487500300596      -0.2515384483016053
5.16E9                   -0.8795726601019898      -0.17523192197076828
5.19E9                   -0.8909122759385588      -0.09770879930724266
5.22E9                   -0.8953962221019041      -0.019572534176988666
5.25E9                   -0.8930069490252852      0.058570491243727874
5.28E9                   -0.8837807000459978      0.13611582866363764
5.31E9                   -0.8678070003539754      0.21246581260777941
5.34E9                   -0.8452276646426627      0.28703432090482306
5.37E9                   -0.8162353494713234      0.35925137346994307
5.4E9                    -0.7810716987865836      0.4285675143977346
5.43E9                   -0.7400251383575924      0.49445794863234405
5.46E9                   -0.6934283666630026      0.5564264275011747
5.49E9                   -0.6416555721458468      0.6140088895758551
5.52E9                   -0.5851193880497102      0.666776862741437
5.55E9                   -0.5242675829269933      0.7143406228225797
5.58E9                   -0.459579480416432       0.756352088725205
5.61E9                   -0.39156210663570157     0.7925074182260392
5.64E9                   -0.32074607631146557     0.822549256195352
5.67E9                   -0.24768124810663414     0.84626858124611
5.7E9                    -0.1729322024443908      0.8635061010103213
5.73E9                   -0.09707361599820957     0.8741531628461623
5.76E9                   -0.020685618066466738    0.8781521745491271
5.79E9                   0.055650791707544306     0.8754965612431885
5.82E9                   0.13135820764076486      0.8662303080754757
5.85E9                   0.20586713885526076      0.8504471436322447
5.88E9                   0.278620186523262        0.828289405197004
5.91E9                   0.34907608646287525      0.7999466033556697
5.94E9                   0.41671361821432706      0.7656536830793741
5.97E9                   0.4810353646136809       0.7256889699298452
6.0E9                    0.5415712892882185       0.6803717941254716
