% Model:              three_layers reality at 0.1mm.mph
% Version:            COMSOL 5.6.0.280
% Date:               Feb 23 2022, 19:05
% Table:              表格 1 - 全局计算 1
% freq (Hz)              real(emw.S11) (1)        imag(emw.S11) (1)
300000000                0.6091564281478647       -0.742084590091507
330000000                0.5420701519492689       -0.791754236842016
360000000                0.47105884710548784      -0.8354254883876209
390000000                0.3966440256960182       -0.872790382994835
420000000                0.31937353780215827      -0.9035853043211987
450000000                0.2398173607513927       -0.9275935596069931
480000000                0.15856323714466714      -0.9446474705948419
510000000                0.07621218866891938      -0.9546299965486377
540000000                -0.006626064479100791    -0.9574759023687623
570000000                -0.08933774602955467     -0.9531724806449344
600000000                -0.17130969537484103     -0.9417598347943432
630000000                -0.25193403417146715     -0.923330729801889
660000000                -0.3306127935959798      -0.8980300177938416
690000000                -0.40676246770991303     -0.8660536469407978
720000000                -0.4798184583786431      -0.827647264077146
750000000                -0.5492393776172316      -0.7831044237290403
780000000                -0.6145111744201961      -0.7327644184059638
810000000                -0.675151052973149       -0.6770097482740047
840000000                -0.7307111524129759      -0.6162632498934559
870000000                -0.7807819580075912      -0.5509849074215406
900000000                -0.8249954169814633      -0.4816683713592805
930000000                -0.8630277338867409      -0.4088372126349851
960000000                -0.8946018229278295      -0.3330409420520105
990000000                -0.9194893976411287      -0.2548508268744268
1020000000               -0.9375126811039476      -0.1748555381117272
1050000000               -0.9485457229553926      -0.09365666376539028
1080000000               -0.9525153130147719      -0.011864123858522022
1110000000               -0.9494014844187451      0.06990847558224432
1140000000               -0.9392376028214922      0.15104851214468293
1170000000               -0.9221100416834878      0.23094900301427324
1200000000               -0.8981574470745122      0.3090132096117751
1230000000               -0.8675695989859735      0.3846591544555016
1260000000               -0.830585879459769       0.4573240141561839
1290000000               -0.7874933610591677      0.5264683541599946
1320000000               -0.7386245323716575      0.5915801719841175
1350000000               -0.6843546801299981      0.6521787176982174
1380000000               -0.625098950255565       0.7078180624901814
1410000000               -0.5613091124888744      0.7580903885119602
1440000000               -0.49347005576199177     0.8026289754769942
1470000000               -0.4220960430809836      0.8411108625548519
1500000000               -0.3477267565655215      0.8732591666709475
1530000000               -0.27092316462324256     0.8988450413784582
1560000000               -0.19226324424589905     0.9176892635137599
1590000000               -0.11233759222179884     0.9296634379407962
1620000000               -0.03174495949933381     0.9346908137469522
1650000000               0.04891225671395319      0.9327467083790358
1680000000               0.12903252902194426      0.9238585392797515
1710000000               0.20801968976440666      0.9081054655210912
1740000000               0.2852873617853005       0.8856176448653157
1770000000               0.36026329710343874      0.8565751145198794
1800000000               0.4323935925321294       0.8212063063993247
1830000000               0.5011467516427729       0.7797862104209203
1860000000               0.5660175646870659       0.7326342015842602
1890000000               0.626530779327787        0.6801115488896475
1920000000               0.6822445369397017       0.6226186262072236
1950000000               0.732753551198023        0.5605918470767522
1980000000               0.7776920077936165       0.49450034704852625
2010000000               0.8167361662085736       0.4248424387896006
2040000000               0.8496066469223053       0.3521418663438261
2070000000               0.8760703898325854       0.27694388589093366
2100000000               0.8959422720940258       0.19981120117105525
2130000000               0.9090863761569349       0.12131978169112223
2.16E9                   0.9154169008607266       0.042054591896608644
2.19E9                   0.9148987101442185       -0.03739474157787559
2.22E9                   0.9075475142328412       -0.11643829810210526
2.25E9                   0.8934296768989829       -0.19449024021203815
2.28E9                   0.8726616398058585       -0.27097317008061383
2.31E9                   0.8454089538850561       -0.3453224273681584
2.34E9                   0.811884914072893        -0.4169902775085406
2.37E9                   0.7723488135581502       -0.48544992938684317
2.4E9                    0.727103863508442        -0.5501993288803159
2.43E9                   0.6764948439418697       -0.610764707998251
2.46E9                   0.6209055370650476       -0.6667039116981986
2.49E9                   0.5607559493553013       -0.7176095396153983
2.52E9                   0.4964992897945546       -0.7631119119903851
2.55E9                   0.42861867196338416      -0.8028818234589657
2.58E9                   0.35762354038162236      -0.8366330233675829
2.61E9                   0.28404585535703947      -0.8641243680173045
2.64E9                   0.20843608647384643      -0.8851616121199535
2.67E9                   0.1313590633759306       -0.8995988262440364
2.7E9                    0.053389725200164766     -0.9073394369092411
2.73E9                   -0.024891196541266147    -0.9083368891374515
2.76E9                   -0.10290153006422553     -0.9025949315932675
2.79E9                   -0.18006202001414984     -0.8901675246579581
2.82E9                   -0.25580065785031797     -0.8711583727449412
2.85E9                   -0.32955695471092367     -0.8457200840205765
2.88E9                   -0.40078612521189716     -0.8140529630672488
2.91E9                   -0.46896315056508736     -0.7764034448215738
2.94E9                   -0.5335866901775538      -0.7330621808498434
2.97E9                   -0.5941828112927693      -0.684361792073865
3.0E9                    -0.6503085078557987      -0.6306743047030077
3.03E9                   -0.7015549810450652      -0.5724082889071842
3.06E9                   -0.747550655735194       -0.5100057223453712
3.09E9                   -0.7879639093478652      -0.44393860293714993
3.12E9                   -0.8225054917483583      -0.3747053374988144
3.15E9                   -0.8509306174845191      -0.30282693466784116
3.18E9                   -0.8730407142767425      -0.22884303234852124
3.21E9                   -0.8886848147059768      -0.15330779095289093
3.24E9                   -0.897760580852716       -0.07678568507352662
3.27E9                   -0.9002149548139393      1.5277339897735575E-4
3.3E9                    -0.8960444309732634      0.07693534701493042
3.33E9                   -0.8852949489742072      0.15299238575181565
3.36E9                   -0.8680614092712802      0.2277611076514146
3.39E9                   -0.8444868160665501      0.30068981385939736
3.42E9                   -0.8147610552670138      0.37124200541133634
3.45E9                   -0.7791193179628689      0.4389003697167823
3.48E9                   -0.7378401827201948      0.5031706057136124
3.51E9                   -0.6912433729036802      0.5635850576479555
3.54E9                   -0.6396872080795557      0.6197061290259388
3.57E9                   -0.5835657715375963      0.6711294499371653
3.6E9                    -0.5233058186813098      0.7174867733868591
3.63E9                   -0.45936345352634267     0.7584485790391903
3.66E9                   -0.3922206027275399      0.7937263658642834
3.69E9                   -0.3223813177363223      0.8230746188919321
3.72E9                   -0.25036793684668324     0.8462924385349622
3.75E9                   -0.17671713923989466     0.8632248245321921
3.78E9                   -0.10197592298215917     0.8737636100166082
3.81E9                   -0.026697538822271483    0.8778480444975877
3.84E9                   0.048562589722208754     0.8754650279891006
3.87E9                   0.12325093097313555      0.8666490013887705
3.9E9                    0.1968198679704788       0.8514815003761754
3.93E9                   0.26873165538814664      0.830090381062473
3.96E9                   0.33846228817248303      0.8026487255546835
3.99E9                   0.4055052600901345       0.769373435045832
4.02E9                   0.4693751896467479       0.7305235178802021
4.05E9                   0.5296112894068793       0.6863980810008793
4.08E9                   0.5857806531851388       0.6373340356420042
4.11E9                   0.6374813351598025       0.5837035316241946
4.14E9                   0.6843451956867054       0.5259111386936988
4.17E9                   0.7260404908154524       0.4643907971106125
4.2E9                    0.7622741857347759       0.3996025626584099
4.23E9                   0.7927939761058398       0.3320291730499143
4.26E9                   0.8173900049297433       0.2621724634268123
4.29E9                   0.83589626578611         0.1905496585589495
4.32E9                   0.8481916858386462       0.11768956865407787
4.35E9                   0.8542008837775875       0.044128715222884446
4.38E9                   0.8538945993086774       -0.029592587035998142
4.41E9                   0.8472897920190505       -0.10293416614085345
4.44E9                   0.8344494089103819       -0.17535991999900868
4.47E9                   0.81548182169225         -0.24634170774424977
4.5E9                    0.7905399371015464       -0.31536317770689765
4.53E9                   0.7598199860182326       -0.38192350435184813
4.56E9                   0.7235599998089648       -0.44554100676255387
4.59E9                   0.6820379850798418       -0.5057566219414287
4.62E9                   0.6355698106914645       -0.562137207353308
4.65E9                   0.5845068233158666       -0.6142786488175076
4.68E9                   0.5292332098329245       -0.6618087518415081
4.71E9                   0.4701631263205259       -0.7043898966840132
4.74E9                   0.40773761430583755      -0.7417214394533622
4.77E9                   0.3424213254392967       -0.773541843190557
4.8E9                    0.27469907648308267      -0.7996305238708771
4.83E9                   0.2050722574007555       -0.8198093971193363
4.86E9                   0.13405511726027175      -0.8339441121680944
4.89E9                   0.062170954733072575     -0.8419449611317857
4.92E9                   -0.0100517575981403      -0.843767453990118
4.95E9                   -0.08208328397143241     -0.8394125529387332
4.98E9                   -0.15339653892086036     -0.8289265637237438
5.01E9                   -0.2234709710625251      -0.8124006858070612
5.04E9                   -0.29179638557974236     -0.7899702273743925
5.07E9                   -0.35787667588098504     -0.7618134948156664
5.1E9                    -0.42123343739029817     -0.7281503689899382
5.13E9                   -0.48140943930632896     -0.6892405820717517
5.16E9                   -0.5379719324311819      -0.6453817090764462
5.19E9                   -0.590515772259723       -0.5969068878320272
5.22E9                   -0.6386663361141375      -0.5441822812369435
5.25E9                   -0.6820822119578893      -0.48760429705030195
5.28E9                   -0.720457635568926       -0.42759658384908994
5.31E9                   -0.7535246537269734      -0.3646068263579473
5.34E9                   -0.7810549942179117      -0.29910336798332254
5.37E9                   -0.802861628697592       -0.2315716911131821
5.4E9                    -0.8188000199081215      -0.16251078627262167
5.43E9                   -0.8287690492646471      -0.09242943959036755
5.46E9                   -0.8327116234499133      -0.021842465576923414
5.49E9                   -0.8306149595697194      0.04873308981346758
5.52E9                   -0.822510548426293       0.11878175186191216
5.55E9                   -0.8084737953900598      0.1877934010292969
5.58E9                   -0.7886233389227049      0.25526701259291673
5.61E9                   -0.7631200483151384      0.32071432441345515
5.64E9                   -0.7321657048061395      0.38366340364580354
5.67E9                   -0.6960013740398324      0.44366208170321
5.7E9                    -0.6549054825865249      0.5002812266116944
5.73E9                   -0.6091916167272794      0.5531178231643231
5.76E9                   -0.559206066636853       0.6017978349804696
5.79E9                   -0.5053251423887736      0.6459788278578238
5.82E9                   -0.44795228869643566     0.6853523396853367
5.85E9                   -0.38751502344015853     0.7196459866121193
5.88E9                   -0.32446172225391207     0.7486252970948768
5.91E9                   -0.2592582697136768      0.7720952651337291
5.94E9                   -0.1923845979493539      0.7899016129293612
5.97E9                   -0.12433113554841989     0.8019317528794785
6.0E9                    -0.05559519241175899     0.8081154400451247
