% Model:              three_layers reality at 0.1mm.mph
% Version:            COMSOL 5.6.0.280
% Date:               Feb 25 2022, 15:01
% Table:              表格 1 - 全局计算 1
% freq (Hz)              real(emw.S11) (1)        imag(emw.S11) (1)
300000000                0.5605478018817319       -0.7548539070654423
330000000                0.48907750438357134      -0.801583849060902
360000000                0.41379769992791754      -0.8417036087412223
390000000                0.33537797212718845      -0.874865108752585
420000000                0.2544114947956581       -0.9008256219124567
450000000                0.17154380243457723      -0.9193847091518048
480000000                0.08743956247403127      -0.930400257978964
510000000                0.002776565882714266     -0.9337904225586989
540000000                -0.08176028715177744     -0.9295349213078574
570000000                -0.1654850037780724      -0.9176757227625943
600000000                -0.24771650038976809     -0.8983171366192435
630000000                -0.3277845581799209      -0.8716253191947123
660000000                -0.40503569459059713     -0.8378272013174435
690000000                -0.47883890559053405     -0.7972088477171559
720000000                -0.5485912308948394      -0.7501132599042797
750000000                -0.6137230918201392      -0.6969376391884077
780000000                -0.673703350913592       -0.6381301310704282
810000000                -0.7280440425827713      -0.5741860784190286
840000000                -0.7763047259873939      -0.5056438156882089
870000000                -0.8180964135228845      -0.43308004331083405
900000000                -0.8530850325160444      -0.35710482557100454
930000000                -0.8809943818192167      -0.2783562610588323
960000000                -0.9016085503110569      -0.19749487913617517
990000000                -0.9147737702172286      -0.11519782004588648
1020000000               -0.9203996852192342      -0.03215285826908763
1050000000               -0.9184600194971586      0.05094766760236846
1080000000               -0.9089926418051295      0.13341295522123203
1110000000               -0.8920990257378544      0.21455980440339406
1140000000               -0.8679431148056234      0.29371858617788543
1170000000               -0.8367496082858669      0.3702390520066518
1200000000               -0.7988016905431434      0.4434959252156806
1230000000               -0.7544382331249913      0.5128942182909072
1260000000               -0.7040505049734233      0.5778742245362528
1290000000               -0.6480784307933967      0.6379161382274574
1320000000               -0.5870064429635863      0.692544261366602
1350000000               -0.5213589752452759      0.74133076247672
1380000000               -0.45169564961916164     0.7838989583673444
1410000000               -0.3786062100310254      0.8199260959621872
1440000000               -0.30270525712615265     0.8491456183571625
1470000000               -0.22462683869552116     0.8713489051518455
1500000000               -0.14501895031127        0.8863864831295141
1530000000               -0.0645379989469884      0.8941687094371847
1560000000               0.016156719275751463     0.8946659346808539
1590000000               0.09640847838773148      0.8879081582458422
1620000000               0.17556847318672306      0.8739841927234826
1650000000               0.25300101838205064      0.8530403581135446
1680000000               0.3280885572667018       0.8252787298338413
1710000000               0.4002364444136216       0.7909549673180112
1740000000               0.4688774704631149       0.7503757522933616
1770000000               0.5334761012298588       0.7038958673900626
1800000000               0.5935324066732918       0.6519149470668846
1830000000               0.6485856589165074       0.5948739336787865
1860000000               0.698217581989315        0.5332512717742619
1890000000               0.742055239092856        0.4675588739228517
1920000000               0.7797735459962785       0.3983378912578604
1950000000               0.8110974021418816       0.32615432139406286
1980000000               0.8358034333003996       0.2515944860624553
2010000000               0.8537213420586461       0.17526040990189573
2040000000               0.8647348643037631       0.09776513153360546
2070000000               0.86878233186488         0.019727977165232034
2100000000               0.8658568432810334       -0.05823017402537892
2130000000               0.856006046122916        -0.13549160360064536
2.16E9                   0.8393315360335937       -0.21144641867094985
2.19E9                   0.8159878791397713       -0.28549714049370145
2.22E9                   0.7861812659215307       -0.357063190394392
2.25E9                   0.7501678060424468       -0.4255852475937505
2.28E9                   0.708251474926276        -0.4905294544526506
2.31E9                   0.6607817233594908       -0.551391447021771
2.34E9                   0.6081507615729355       -0.6077001895874079
2.37E9                   0.550790527572587        -0.6590215940372665
2.4E9                    0.48916934602498935      -0.7049619050489697
2.43E9                   0.42378827869625013      -0.7451708289081488
2.46E9                   0.35517716127567844      -0.7793443747548626
2.49E9                   0.2838903205217566       -0.807227358229061
2.52E9                   0.21050197806444812      -0.8286154907595453
2.55E9                   0.13560138686176018      -0.8433569526175445
2.58E9                   0.05978781430909237      -0.8513533511108756
2.61E9                   -0.01633444177992711     -0.8525600276559498
2.64E9                   -0.09216080003759403     -0.846985802579518
2.67E9                   -0.1670907943818202      -0.8346923740771821
2.7E9                    -0.24053219710124196     -0.815793611109143
2.73E9                   -0.3119050914702228      -0.7904548468719216
2.76E9                   -0.38064611858774255     -0.7588920707720994
2.79E9                   -0.4462129709083839      -0.7213707856702817
2.82E9                   -0.5080890248983768      -0.6782043197586348
2.85E9                   -0.5657879134562948      -0.6297515049226249
2.88E9                   -0.6188578518484183      -0.5764137543451376
2.91E9                   -0.6668855965384733      -0.5186316348198974
2.94E9                   -0.7094999796113376      -0.45688103718481765
2.97E9                   -0.7463749995987525      -0.3916690295341662
3.0E9                    -0.7772324636532405      -0.32352945690202894
3.03E9                   -0.8018441785694785      -0.25301833572067234
3.06E9                   -0.8200336852362385      -0.1807090854424313
3.09E9                   -0.831677529906483       -0.1071876374866206
3.12E9                   -0.8367060654882267      -0.03304746360791504
3.15E9                   -0.8351037786272543      0.04111543291058554
3.18E9                   -0.8269091419448698      0.11470751794025438
3.21E9                   -0.8122139954389683      0.18714267319041164
3.24E9                   -0.791162466049064       0.2578470431404186
3.27E9                   -0.7639494393060487      0.32626373785768215
3.3E9                    -0.7308186018276382      0.39185734860463667
3.33E9                   -0.6920600777293289      0.45411823639412924
3.36E9                   -0.6480076859957182      0.5125665561333446
3.39E9                   -0.5990358494370037      0.566755982475887
3.42E9                   -0.5455561887103295      0.6162771074714932
3.45E9                   -0.4880138377979295      0.660760483533729
3.48E9                   -0.42688351904655647     0.6998792900667166
3.51E9                   -0.3626654180378417      0.733351605755882
3.54E9                   -0.2958808991989176      0.7609422736683813
3.57E9                   -0.2270681040426352      0.7824643504681632
3.6E9                    -0.15677747385455146     0.7977801359033535
3.63E9                   -0.08556723781057887     0.8068017834004844
3.66E9                   -0.013998906395727496    0.8094914968899811
3.69E9                   0.057367192070013576     0.8058613230904863
3.72E9                   0.12797629689327294      0.7959725518763583
3.75E9                   0.19728349027718795      0.7799347397588736
3.78E9                   0.26475783315547957      0.757904373083932
3.81E9                   0.32988633468629946      0.7300831883029563
3.84E9                   0.392177729954226        0.6967161671223435
3.87E9                   0.4511660408167387       0.658089225044881
3.9E9                    0.506413894894971        0.614526613377858
3.93E9                   0.5575155773421606       0.5663880577632875
3.96E9                   0.6040997908128667       0.5140656606493342
3.99E9                   0.6458321018060446       0.4579806003694069
4.02E9                   0.6824170566196579       0.3985796648410041
4.05E9                   0.7135999583635861       0.3363316612888819
4.08E9                   0.7391683062135517       0.271723743492396
4.11E9                   0.7589529076524851       0.2052576934652553
4.14E9                   0.7728286807224063       0.1374461859991362
4.17E9                   0.7807151644487782       0.0688090543366018
4.2E9                    0.7825767512754421       -1.3043312771150286E-4
4.23E9                   0.7784226479240577       -0.0688492785938575
4.26E9                   0.768306564399304        -0.13682843447709234
4.29E9                   0.7523261281706728       -0.20355644290213215
4.32E9                   0.7306220225677234       -0.26853301595099044
4.35E9                   0.703376853221868        -0.3312725358220542
4.38E9                   0.670813750504427        -0.39130745612721435
4.41E9                   0.6331947168079687       -0.44819158968154355
4.44E9                   0.5908187248677769       -0.5015032710273538
4.47E9                   0.5440195690404774       -0.5508483814058921
4.5E9                    0.49316346847148723      -0.5958632195201472
4.53E9                   0.4386464215182093       -0.6362171951143165
4.56E9                   0.3808913151055176       -0.671615316478444
4.59E9                   0.3203448002587935       -0.7018004393279265
4.62E9                   0.2574739534937677       -0.726555244748235
4.65E9                   0.1927627521250578       -0.7457039171858378
4.68E9                   0.12670839731048958      -0.7591134999652218
4.71E9                   0.05981752235391973      -0.7666949133790889
4.74E9                   -0.007397676587731894    -0.7684036285698531
4.77E9                   -0.07442335255170462     -0.7642399967947493
4.8E9                    -0.14074793266898472     -0.7542492377591463
4.83E9                   -0.2058660303807118      -0.7385210914302591
4.86E9                   -0.2692823220357052      -0.7171891361580006
4.89E9                   -0.3305153651471268      -0.690429773499236
4.92E9                   -0.38910133280661363     -0.6584608787605097
4.95E9                   -0.44459763468540053     -0.6215401171745355
4.98E9                   -0.4965863912367427      -0.5799629291314049
5.01E9                   -0.5446777252736266      -0.5340601931775945
5.04E9                   -0.5885128344264671      -0.4841955818031779
5.07E9                   -0.627766809163383       -0.43076263159683903
5.1E9                    -0.6621511641153344      -0.3741815554867267
5.13E9                   -0.6914160550123092      -0.31489583040285246
5.16E9                   -0.7153521598984984      -0.25336859789437366
5.19E9                   -0.7337922109413987      -0.19007891708459823
5.22E9                   -0.7466121706320742      -0.12551790832417964
5.25E9                   -0.7537320519390791      -0.060184821845088055
5.28E9                   -0.7551163840574149      0.0054169396614346145
5.31E9                   -0.7507743236629922      0.07078381934785659
5.34E9                   -0.7407594080198742      0.13541610047751493
5.37E9                   -0.7251689438102471      0.19882186731626966
5.4E9                    -0.7041430270819912      0.26052089694703906
5.43E9                   -0.6778631956568236      0.32004844025687856
5.46E9                   -0.6465507244419526      0.376958847508985
5.49E9                   -0.6104645840749088      0.4308289951324792
5.52E9                   -0.5698990922322366      0.4812614750330963
5.55E9                   -0.5251812938086364      0.5278875149987873
5.58E9                   -0.4766681104369404      0.5703696076517372
5.61E9                   -0.4247433011656068      0.6084038352920341
5.64E9                   -0.36981427364169717     0.6417218878759124
5.67E9                   -0.31230877858639366     0.6700927793900506
5.7E9                    -0.25267151075376953     0.6933242711884963
5.73E9                   -0.19136062981149016     0.7112640077655032
5.76E9                   -0.12884420984634773     0.7238003611033252
5.79E9                   -0.06559663018855773     0.7308629689427477
5.82E9                   -0.0020949325278770913   0.7324229469123691
5.85E9                   0.06118481598641293      0.7284927594161335
5.88E9                   0.12377110472793779      0.7191257487640018
5.91E9                   0.18520045916325786      0.7044153398490951
5.94E9                   0.24502078164198693      0.6844939510841922
5.97E9                   0.30279453214650315      0.6595316467797578
6.0E9                    0.3581017407690233       0.629734562513424
