% Model:              three_layers reality at 0.1mm.mph
% Version:            COMSOL 5.6.0.280
% Date:               Feb 25 2022, 15:04
% Table:              表格 1 - 全局计算 1
% freq (Hz)              real(emw.S11) (1)        imag(emw.S11) (1)
300000000                0.5801950960556557       -0.7750060778391723
330000000                0.5062607183324614       -0.8246818921269695
360000000                0.42816964014002645      -0.8673386292582358
390000000                0.3465878261045447       -0.9026337900831121
420000000                0.26218843198771075      -0.9302906674028553
450000000                0.1756789937474654       -0.9500876640750596
480000000                0.0877852846831086       -0.961867846539313
510000000                -7.545294090734345E-4    -0.9655407120521056
540000000                -0.08919604838496405     -0.9610834175364236
570000000                -0.17679493847661068     -0.9485414026334196
600000000                -0.2628133153441855      -0.9280283926565958
630000000                -0.34652614379717356     -0.8997257731928667
660000000                -0.42722759253547676     -0.8638813331179954
690000000                -0.5042372767449439      -0.820807379055916
720000000                -0.5769063236358096      -0.7708782311501737
750000000                -0.6446231970118126      -0.7145271162164515
780000000                -0.7068192146193006      -0.6522424825257974
810000000                -0.7629736988690116      -0.5845637667644449
840000000                -0.8126187011198054      -0.512076650929588
870000000                -0.85534324452445        -0.435407855142779
900000000                -0.8907970370267144      -0.3552195163034852
930000000                -0.918693609317457       -0.2722032113815624
960000000                -0.9388128416137136      -0.18707368694099843
990000000                -0.9510028492711939      -0.10056236184852821
1020000000               -0.9551812054944885      -0.013410673835644128
1050000000               -0.9513354880861666      0.0736366585641909
1080000000               -0.9395231456877599      0.15983838447043683
1110000000               -0.9198706875534773      0.24446340658948573
1140000000               -0.8925722100212081      0.32679733220384444
1170000000               -0.8578872807962116      0.40614881967338656
1200000000               -0.8161382102690914      0.4818556541737799
1230000000               -0.7677067466292316      0.5532904905146366
1260000000               -0.7130302375741236      0.6198662072668438
1290000000               -0.652597307742856       0.6810408212851948
1320000000               -0.5869431055418224      0.7363219190856791
1350000000               -0.5166441764493952      0.7852705688952253
1380000000               -0.44231302347599216     0.8275046836650848
1410000000               -0.3645924162429517      0.8627018139218929
1440000000               -0.28414951134017896     0.8906013560657876
1470000000               -0.2016698463976484      0.9110061691319535
1500000000               -0.11785126905087218     0.9237836001013829
1530000000               -0.03339785954402128     0.9288659243826217
1560000000               0.05098609563690992      0.9262502137367815
1590000000               0.13460202689078607      0.9159976497345987
1620000000               0.2167628506991063       0.8982323051513709
1650000000               0.2967985402021828       0.8731394200321017
1680000000               0.37406145531803525      0.8409632024236118
1710000000               0.44793139591725367      0.8020041864660226
1740000000               0.5178203453609562       0.7566161826828984
1770000000               0.583176876520783        0.7052028566755635
1800000000               0.6434901963850266       0.6482139734429965
1830000000               0.698293809283911        0.5861413451097249
1860000000               0.7471687829830458       0.5195145196185487
1890000000               0.7897466048232282       0.4488962480459786
1920000000               0.8257116186452393       0.3748777674279641
1950000000               0.8548030360928071       0.29807393533447873
1980000000               0.8768165184367274       0.219118251513164
2010000000               0.8916053273280184       0.13865780137925404
2040000000               0.8990810453038414       0.057348154498513215
2070000000               0.8992138685166662       -0.02415174926948794
2100000000               0.892032475934223        -0.10518469378426487
2130000000               0.8776234812019319       -0.18510023091327665
2.16E9                   0.8561304746329874       -0.2632596441501285
2.19E9                   0.8277526645695481       -0.3390408034808492
2.22E9                   0.7927431288381325       -0.4118428826716823
2.25E9                   0.7514066884442692       -0.48109091267135123
2.28E9                   0.7040974169130106       -0.5462401454796332
2.31E9                   0.6512157994717853       -0.6067802047517614
2.34E9                   0.5932055559773229       -0.6622390017072859
2.37E9                   0.530550139957476        -0.7121863960684574
2.4E9                    0.4637689222105298       -0.7562375824972833
2.43E9                   0.3934130613094503       -0.7940561795055854
2.46E9                   0.32006105735648804      -0.825356987323427
2.49E9                   0.24431398407158922      -0.8499083609476413
2.52E9                   0.16679040941595247      -0.8675341149825084
2.55E9                   0.08812105933182864      -0.8781148505277033
2.58E9                   0.008943354821127158     -0.8815886002663664
2.61E9                   -0.07010396950260081     -0.8779507599996956
2.64E9                   -0.14838594207567352     -0.8672534148195645
2.67E9                   -0.22527601172048098     -0.8496043063327647
2.7E9                    -0.30016037636672455     -0.8251657056406
2.73E9                   -0.3724422373757488      -0.7941533020540743
2.76E9                   -0.44154622367456775     -0.7568349864537706
2.79E9                   -0.5069230547117449      -0.7135292709094522
2.82E9                   -0.568054315097539       -0.6646031201207092
2.85E9                   -0.6244571182024089      -0.610469110222764
2.88E9                   -0.675688458322469       -0.5515819620925084
2.91E9                   -0.7213491256799321      -0.4884345617956589
2.94E9                   -0.7610871291526622      -0.4215535855630501
2.97E9                   -0.7946006117383879      -0.35149482478184396
3.0E9                    -0.821640259560422       -0.27883828141751804
3.03E9                   -0.8420112060610672      -0.20418308883618544
3.06E9                   -0.8555744311871815      -0.1281423046095239
3.09E9                   -0.862247653189574       -0.051337620564800596
3.12E9                   -0.8620057112779738      0.02560596389454897
3.15E9                   -0.8548804401119396      0.10206545799323707
3.18E9                   -0.8409600411103133      0.17742513667739981
3.21E9                   -0.8203879606578799      0.2510816901886625
3.24E9                   -0.7933612904572426      0.32244921870377097
3.27E9                   -0.7601287104307812      0.39096402635946403
3.3E9                    -0.7209879993901342      0.4560891716174057
3.33E9                   -0.6762831429070185      0.5173187346382894
3.36E9                   -0.6264010716264484      0.5741817656391136
3.39E9                   -0.5717680663957108      0.626245882598764
3.42E9                   -0.5128458692927137      0.6731204908622598
3.45E9                   -0.4501275416445296      0.7144596018948524
3.48E9                   -0.38413311191352745     0.749964232823058
3.51E9                   -0.3154050571967501      0.7793843734720537
3.54E9                   -0.24450366278183086     0.8025205122161442
3.57E9                   -0.17200230421047227     0.8192247168405796
3.6E9                    -0.09848269541595994     0.8294012715765213
3.63E9                   -0.024530145645193537    0.8330068759215902
3.66E9                   0.049271134575476876     0.8300504154905353
3.69E9                   0.12234264057059666      0.8205923188711556
3.72E9                   0.1941160590593496       0.8047435176511082
3.75E9                   0.2640376013825034       0.7826640289155842
3.78E9                   0.33157215615615154      0.7545611805617871
3.81E9                   0.3962072363767318       0.7206875001405534
3.84E9                   0.4574566969468705       0.6813382879390008
3.87E9                   0.5148641994125539       0.6368488954003979
3.9E9                    0.5680064001442185       0.5875917314867047
3.93E9                   0.6164958381155057       0.5339730226133363
3.96E9                   0.6599834993293918       0.4764293562274901
3.99E9                   0.6981610377075569       0.41542404386539566
4.02E9                   0.7307626383592247       0.35144334477823985
4.05E9                   0.7575665181347084       0.28499259430800983
4.08E9                   0.7783960687873606       0.21659228076911302
4.11E9                   0.7931206582906705       0.14677410855900416
4.14E9                   0.8016561118816512       0.07607707545499709
4.17E9                   0.8039648946674106       0.0050435806723485195
4.2E9                    0.8000560120249731       -0.06578442876611984
4.23E9                   0.7899846352135349       -0.1358692685700341
4.26E9                   0.7738514522934037       -0.20468127749109877
4.29E9                   0.751801741580491        -0.2717025133756136
4.32E9                   0.7240241673664447       -0.3364303657784786
4.35E9                   0.6907493028874531       -0.3983810638516551
4.38E9                   0.6522478898142143       -0.4570930608535803
4.41E9                   0.608828844234516        -0.5121302808285652
4.44E9                   0.5608370159615733       -0.5630852159392042
4.47E9                   0.5086507036743367       -0.6095818616485671
4.5E9                    0.4526789253748888       -0.6512784722967351
4.53E9                   0.3933584450192868       -0.6878701123950282
4.56E9                   0.3311505611585659       -0.7190909733097651
4.59E9                   0.2665376720421495       -0.7447164215358477
4.62E9                   0.20001964071693745      -0.764564745809
4.65E9                   0.13210999227159537      -0.7784985746278275
4.68E9                   0.06333198123075334      -0.7864259431581067
4.71E9                   -0.005785429843583856    -0.7883009970592358
4.74E9                   -0.07471164011449627     -0.7841243294561174
4.77E9                   -0.14291849188923678     -0.7739429541667048
4.8E9                    -0.2098843319104587      -0.7578499221559055
4.83E9                   -0.27509802617678086     -0.7359835888228604
4.86E9                   -0.3380629046135451      -0.708526537696773
4.89E9                   -0.39830061181556364     -0.675704163535912
4.92E9                   -0.45535483740240346     -0.6377829164724806
4.95E9                   -0.5087948950488633      -0.5950682101588917
4.98E9                   -0.5582191158402695      -0.5479020007892322
5.01E9                   -0.6032580192439618      -0.4966600497424845
5.04E9                   -0.6435772248414056      -0.44174888946536656
5.07E9                   -0.6788800702512744      -0.38360251877511375
5.1E9                    -0.7089099040001141      -0.32267886046017263
5.13E9                   -0.7334520281288032      -0.25945601913813626
5.16E9                   -0.7523352721988681      -0.19442838159759415
5.19E9                   -0.7654331891995823      -0.12810260265220474
5.22E9                   -0.7726648716958322      -0.060993517771275964
5.25E9                   -0.773995392544363       0.006379981629709493
5.28E9                   -0.7694358761432251      0.07349908047859359
5.31E9                   -0.759043203802302       0.13984915452768817
5.34E9                   -0.7429193526399639      0.20492384175597858
5.37E9                   -0.7212103648430969      0.26822904056980984
5.4E9                    -0.6941049460215716      0.3292867979395959
5.43E9                   -0.6618326981499472      0.3876390446651023
5.46E9                   -0.624662002481828       0.44285113264229276
5.49E9                   -0.5828975783794501      0.49451513121513957
5.52E9                   -0.5368777530531624      0.5422528456255148
5.55E9                   -0.48697148373417304     0.5857185291788757
5.58E9                   -0.4335751775065492      0.62460127064523
5.61E9                   -0.37710935405671275     0.6586270495433217
5.64E9                   -0.31801519278342893     0.6875604622267413
5.67E9                   -0.25675099734900614     0.7112061296567305
5.7E9                    -0.19378859956498806     0.7294098002149138
5.73E9                   -0.12960971396542612     0.7420591560335755
5.76E9                   -0.0647022501065555      0.7490843202008982
5.79E9                   4.4340507169646773E-4    0.7504580504483114
5.82E9                   0.06533810812318315      0.7461955997443616
5.85E9                   0.12949764105396025      0.7363542310264428
5.88E9                   0.19244630311522004      0.7210323898905863
5.91E9                   0.25372036490436223      0.7003685583624328
5.94E9                   0.3128713503554039       0.6745398261024244
5.97E9                   0.3694691295685575       0.6437602185329835
6.0E9                    0.4231048187805129       0.6082788156923431
