% Model:              three_layers reality at 0.1mm.mph
% Version:            COMSOL 5.6.0.280
% Date:               Feb 21 2022, 16:46
% Table:              表格 1 - 全局计算 1
% freq (Hz)              real(emw.S11) (1)        imag(emw.S11) (1)
300000000                0.5398308991385087       -0.7288391254770261
330000000                0.4709995450734756       -0.7735205605695215
360000000                0.3986042006557396       -0.8118441676081617
390000000                0.32320950542536697      -0.84351728938816
420000000                0.2454086224789899       -0.8682986651097429
450000000                0.16581748140400326      -0.8860008807405239
480000000                0.08506915918584124      -0.8964923351900702
510000000                0.0038083051583853948    -0.8996987179837437
540000000                -0.07731442906636198     -0.8956039915491151
570000000                -0.15764795937875126     -0.8842508702562473
600000000                -0.23654632497691291     -0.8657407896298385
630000000                -0.3133742026378239      -0.8402333613910271
660000000                -0.3875123444825264      -0.8079453132991538
690000000                -0.45836289810656256     -0.769148916932813
720000000                -0.525354565235223       -0.7241699109719006
750000000                -0.5879475523554112      -0.6733849328883054
780000000                -0.6456382668591292      -0.6172184769612027
810000000                -0.6979637121766833      -0.5561394022292101
840000000                -0.7445055370904874      -0.4906570193159113
870000000                -0.7848936967235844      -0.42131679043103526
900000000                -0.8188096859398023      -0.3486956819193612
930000000                -0.8459893099717877      -0.27339721331173766
960000000                -0.8662249617126655      -0.19604625121619165
990000000                -0.8793673806204225      -0.11728359957936352
1020000000               -0.885326873849105       -0.037760441161240416
1050000000               -0.8840739866365054      0.04186731324192961
1080000000               -0.8756396153974185      0.12094470977326295
1110000000               -0.8601145636786957      0.198823412395382
1140000000               -0.8376485477872102      0.2748672817522871
1170000000               -0.8084486654607614      0.3484578154460028
1200000000               -0.7727773472109138      0.4189993954617924
1230000000               -0.7309498159345316      0.4859242911862798
1260000000               -0.683331085757857       0.5486973703943517
1290000000               -0.6303325359852633      0.6068204746493011
1320000000               -0.572408100262419       0.6598364204331341
1350000000               -0.5100501144122295      0.7073325926592
1380000000               -0.44378486938253386     0.7489441024860555
1410000000               -0.37416791749145717     0.7843564872999246
1440000000               -0.3017791815810731      0.8133079362900978
1470000000               -0.22721791699783173     0.8355910308901662
1500000000               -0.15109757626057319     0.8510539948146949
1530000000               -0.07404062522027459     0.8596014538232923
1560000000               0.0033266417276623275    0.8611947102705937
1590000000               0.08037924207002939      0.8558515421849848
1620000000               0.15649855807374316      0.8436455407415112
1650000000               0.23107726192183586      0.8247050037469248
1680000000               0.30352407588919594      0.7992114059576595
1710000000               0.3732683334305211       0.7673974698202651
1740000000               0.43976431057255927      0.7295448624462264
1770000000               0.5024953003210646       0.6859815464242454
1800000000               0.5609774059880142       0.6370788135245813
1830000000               0.614763032965496        0.5832480311830024
1860000000               0.6634440614178033       0.5249371323789614
1890000000               0.7066546855509955       0.46262687980822526
1920000000               0.7440739081446577       0.396826935237825
1950000000               0.7754276818608965       0.32807176470933835
1980000000               0.8004906917051567       0.2569164096637834
2010000000               0.8190877756931134       0.1839321532979284
2040000000               0.8310949835923588       0.10970210977498768
2070000000               0.8364402759540067       0.03481676196454166
2100000000               0.8351038676429152       -0.0401305301963336
2130000000               0.8271182204803061       -0.11454803335092818
2.16E9                   0.8125676869702275       -0.18785014543961912
2.19E9                   0.7915877987136235       -0.25946189692046584
2.22E9                   0.7643641761783453       -0.32882344614450704
2.25E9                   0.7311310108189141       -0.39539455519687006
2.28E9                   0.6921690453292215       -0.45865899451254144
2.31E9                   0.647802979887906        -0.5181287521664539
2.34E9                   0.5983983032901599       -0.5733478386036398
2.37E9                   0.5443577078376507       -0.6238954531902756
2.4E9                    0.4861174270743462       -0.6693884104440642
2.43E9                   0.42414386681632443      -0.7094830100174655
2.46E9                   0.3589306598587729       -0.7438767838552925
2.49E9                   0.29099589276292015      -0.7723105156953631
2.52E9                   0.2208790461479609       -0.7945705941304134
2.55E9                   0.14913731930419447      -0.8104914134637332
2.58E9                   0.07634131524761437      -0.8199574340638698
2.61E9                   0.0030702860271617284    -0.8229046447932931
2.64E9                   -0.07009281597261285     -0.8193213588353058
2.67E9                   -0.14256630184857874     -0.8092483933743827
2.7E9                    -0.21377463043412137     -0.7927787162939435
2.73E9                   -0.28315317322952344     -0.7700566281528656
2.76E9                   -0.35015284270959557     -0.7412765217730928
2.79E9                   -0.41424456918345776     -0.7066812421982626
2.82E9                   -0.47492360625416014     -0.6665600599324155
2.85E9                   -0.5317136387906317      -0.6212462679014723
2.88E9                   -0.584170662673416       -0.5711144145348671
2.91E9                   -0.631886603246808       -0.5165771893304039
2.94E9                   -0.6744926388046426      -0.45808198212174234
2.97E9                   -0.7116621965840653      -0.3961071419984653
3.0E9                    -0.7431135907708935      -0.33115796652571866
3.03E9                   -0.768612275213638       -0.2637624558984196
3.06E9                   -0.7879726872380837      -0.19446687034233315
3.09E9                   -0.8010596633355942      -0.12383113199339042
3.12E9                   -0.8077894122821047      -0.05242411476751485
3.15E9                   -0.808130036343767       0.01918113280770284
3.18E9                   -0.8021015964183346      0.09041218604786405
3.21E9                   -0.7897757221548929      0.1607020182413026
3.24E9                   -0.7712747730184433      0.22949370567981553
3.27E9                   -0.746770560793804       0.29624502023822596
3.3E9                    -0.7164826480442242      0.36043286802175467
3.33E9                   -0.6806762405569047      0.42155753464042295
3.36E9                   -0.6396596949193339      0.4791466996870754
3.39E9                   -0.5937816652803444      0.5327591848590255
3.42E9                   -0.5434279162740517      0.5819884018845818
3.45E9                   -0.4890178323876644      0.6264654679944258
3.48E9                   -0.43100065795756654     0.6658619584843478
3.51E9                   -0.3698515064641592      0.6998922685030393
3.54E9                   -0.3060671829081075      0.7283155599137755
3.57E9                   -0.24016186804197226     0.7509372746872827
3.6E9                    -0.17266271725256246     0.7676102038746104
3.63E9                   -0.10410542888963442     0.778235110429654
3.66E9                   -0.0350298362435856      0.7827609139963995
3.69E9                   0.03402442623559825      0.781184455111881
3.72E9                   0.10252213735198855      0.7735498639631289
3.75E9                   0.1699365457495759       0.7599475647957289
3.78E9                   0.23575323748335109      0.7405129517573394
3.81E9                   0.2994737918102235       0.715424775635837
3.84E9                   0.36061921255831725      0.6849032829639916
3.87E9                   0.41873313455514993      0.6492081473096761
3.9E9                    0.473384816272168        0.6086362253214781
3.93E9                   0.5241719375921495       0.5635191569330991
3.96E9                   0.5707232214974355       0.5142208128341641
3.99E9                   0.6127008892316713       0.4611345779909363
4.02E9                   0.6498029423640976       0.40468045303445077
4.05E9                   0.6817652476746411       0.3453019583748502
4.08E9                   0.7083633875430455       0.28346283813509754
4.11E9                   0.7294142337538126       0.21964357815832522
4.14E9                   0.7447772069905568       0.1543377691289066
4.17E9                   0.7543551956493826       0.08804835786563672
4.2E9                    0.7580951221884273       0.021283834983481933
4.23E9                   0.7559881592250104       -0.04544559494011607
4.26E9                   0.7480696077984395       -0.11163182161459467
4.29E9                   0.7344184552092188       -0.17677258610273744
4.32E9                   0.7151566296387326       -0.24037516599216519
4.35E9                   0.6904479649073146       -0.30195997376337846
4.38E9                   0.6604968835768923       -0.36106405539657827
4.41E9                   0.6255468025107945       -0.41724447444433976
4.44E9                   0.5858782633736528       -0.4700815630327256
4.47E9                   0.541806791869219        -0.519182016898237
4.5E9                    0.49368049313630585      -0.5641818084636246
4.53E9                   0.44187739581302826      -0.604748890428777
4.56E9                   0.38680256278551095      -0.6405856630800965
4.59E9                   0.32888499182652353      -0.6714311810855871
4.62E9                   0.2685743334064036       -0.6970630799165136
4.65E9                   0.2063374551697278       -0.7172992076414858
4.68E9                   0.14265488234039286      -0.7319989536559266
4.71E9                   0.07801714046233865      -0.7410642705833131
4.74E9                   0.012921022561312868     -0.74444038741824
4.77E9                   -0.05213420107232328     -0.7421162103857993
4.8E9                    -0.11665061333389382     -0.7341244036400862
4.83E9                   -0.18013550064029715     -0.7205411372181203
4.86E9                   -0.2421051955338272      -0.701485487449672
4.89E9                   -0.30208887503396814     -0.677118477486573
4.92E9                   -0.3596322703714243      -0.6476417530818683
4.95E9                   -0.41430123966932375     -0.6132958998677093
4.98E9                   -0.46568515603000593     -0.5743584208862448
5.01E9                   -0.5134000694601027      -0.531141404508882
5.04E9                   -0.5570916110990289      -0.4839889211021877
5.07E9                   -0.5964376207994558      -0.4332741900344244
5.1E9                    -0.6311504915100066      -0.3793965560126066
5.13E9                   -0.6609792330661647      -0.32277830542272623
5.16E9                   -0.6857112606507261      -0.2638613416633268
5.19E9                   -0.7051739076187502      -0.20310372804155452
5.22E9                   -0.7192356505410356      -0.14097610285052306
5.25E9                   -0.7278070216090446      -0.07795797768892271
5.28E9                   -0.7308411776021437      -0.014533945218398162
5.31E9                   -0.7283341002787159      0.04881015952295503
5.34E9                   -0.7203244197322426      0.11159108856511935
5.37E9                   -0.706892873134277       0.17333194585275208
5.4E9                    -0.6881614276336258      0.23356584421144358
5.43E9                   -0.6642921020790111      0.2918394288735474
5.46E9                   -0.6354855172527343      0.34771625786569316
5.49E9                   -0.6019791926548129      0.400780037876052
5.52E9                   -0.5640455953960991      0.45063771369537736
5.55E9                   -0.5219899380074887      0.49692240192624165
5.58E9                   -0.4761477193034148      0.5392961486738916
5.61E9                   -0.4268820061688874      0.5774524796627007
5.64E9                   -0.3745804636273576      0.6111187022821124
5.67E9                   -0.3196521547551842      0.6400579146823078
5.7E9                    -0.2625241488938455      0.664070679713864
5.73E9                   -0.2036379923097229      0.6829963330496741
5.76E9                   -0.14344610445438785     0.6967139144946739
5.79E9                   -0.08240816015724768     0.7051427342932786
5.82E9                   -0.020987503049341785    0.7082426037188141
5.85E9                   0.040352385857086406     0.7060137641843806
5.88E9                   0.10115135818756382      0.6984965405696948
5.91E9                   0.16095600726414575      0.685770728743517
5.94E9                   0.21932301131701915      0.6679547134886918
5.97E9                   0.27582239415926096      0.6452043074275589
6.0E9                    0.33004067488945205      0.6177113047854843
