% Model:              three_layers reality at 0.1mm.mph
% Version:            COMSOL 5.6.0.280
% Date:               Feb 25 2022, 15:11
% Table:              表格 1 - 全局计算 1
% freq (Hz)              real(emw.S11) (1)        imag(emw.S11) (1)
300000000                0.5436349552616054       -0.7285212540291769
330000000                0.47505627430910113      -0.7734404098493091
360000000                0.4028983914679991       -0.8120438166947008
390000000                0.32772059920499236      -0.8440381749186653
420000000                0.2501106358209148       -0.8691808720950744
450000000                0.17067903924988032      -0.8872824356549135
480000000                0.0900536294772973       -0.898208508561864
510000000                0.008874027409515683     -0.9018813448822565
540000000                -0.07221382648400958     -0.8982808184416866
570000000                -0.15256315811671897     -0.887444936988379
600000000                -0.23153183696273194     -0.8694698553132038
630000000                -0.3084878173473038      -0.8445093827442993
660000000                -0.3828145092564819      -0.8127739837812099
690000000                -0.45391603884723236     -0.774529274360777
720000000                -0.5212223552293104      -0.7300940207847599
750000000                -0.5841941379229958      -0.6798376533921492
780000000                -0.6423274593727039      -0.6241773118906593
810000000                -0.6951581565051016      -0.5635744449869481
840000000                -0.742265867187612       -0.49853099200195833
870000000                -0.783277689384982       -0.42958517962801746
900000000                -0.8178714242008219      -0.35730697161058356
930000000                -0.8457783674122581      -0.2822932143647587
960000000                -0.8667856191849437      -0.2051625248359792
990000000                -0.8807378862734097      -0.1265499715269845
1020000000               -0.8875387571625837      -0.04710160153813213
1050000000               -0.887151436390497       0.03253113087009646
1080000000               -0.8795989307143096      0.11169697727537319
1110000000               -0.8649636863501734      0.18975049252750198
1140000000               -0.8433866829989507      0.26605755958379235
1170000000               -0.8150659968081353      0.3400007860989076
1200000000               -0.7802548506496964      0.41098471887922383
1230000000               -0.7392591759463216      0.4784408252779338
1260000000               -0.6924347155955398      0.5418321941626043
1290000000               -0.6401837025796495      0.6006579128068585
1320000000               -0.5829511528321006      0.6544570811748485
1350000000               -0.5212208147268437      0.7028124296883497
1380000000               -0.4555108201356646      0.745353512237711
1410000000               -0.38636908429477634     0.7817594515014893
1440000000               -0.31436850278491835     0.8117612194906573
1470000000               -0.24010199489032616     0.8351434415838386
1500000000               -0.1641774420808341      0.8517457180613532
1530000000               -0.08721256999612646     0.8614634621773164
1560000000               -0.009829820665604495    0.8642482589040577
1590000000               0.06734873988116644      0.8601077529789722
1620000000               0.14370643589259338      0.8491050791060897
1650000000               0.21863687799292855      0.8313578508718014
1680000000               0.29154870390260096      0.8070367281471862
1710000000               0.3618701295928709       0.7763635855559307
1740000000               0.42905328021420513      0.7396093067979203
1770000000               0.49257827294622936      0.6970912315685152
1800000000               0.5519570277361748       0.6491702830220962
1830000000               0.6067367845643741       0.5962478049085018
1860000000               0.6565033092191407       0.5387621380852768
1890000000               0.7008837724576215       0.47718496641484043
1920000000               0.7395492901344038       0.41201746214866053
1950000000               0.7722171143423836       0.3437862609052714
1980000000               0.7986524681473463       0.27303929585730385
2010000000               0.818670018514127        0.2003415205120727
2040000000               0.8321349840859753       0.12627054894054782
2070000000               0.8389638763257139       0.051412241713050914
2100000000               0.8391248742016295       -0.02364373462812023
2130000000               0.8326378342658303       -0.09830834736775655
2.16E9                   0.8195739395069748       -0.17199761016988027
2.19E9                   0.8000549918573228       -0.24413694235747885
2.22E9                   0.7742523547101918       -0.3141654497989961
2.25E9                   0.7423855531486393       -0.38154010316845544
2.28E9                   0.7047205407705548       -0.4457397904961363
2.31E9                   0.6615676426909567       -0.5062692224932074
2.34E9                   0.613279184293139        -0.5626626706927822
2.37E9                   0.5602468137769384       -0.6144875201660107
2.4E9                    0.5028985233188816       -0.6613476187831503
2.43E9                   0.4416953681200848       -0.7028864025630454
2.46E9                   0.3771278765919842       -0.7387897679187401
2.49E9                   0.30971214281139514      -0.7687886439941674
2.52E9                   0.2399856033577283       -0.7926611919695147
2.55E9                   0.16850253687130437      -0.8102345327614824
2.58E9                   0.09582938952244557      -0.8213859045028464
2.61E9                   0.02254010110488043      -0.8260432072081768
2.64E9                   -0.050788371223737805    -0.8241850102612904
2.67E9                   -0.12358021767243024     -0.8158402235998914
2.7E9                    -0.1952646883782485      -0.8010876636391684
2.73E9                   -0.2652799648502528      -0.7800556248546594
2.76E9                   -0.33307720995653095     -0.7529213690570924
2.79E9                   -0.39812487678853226     -0.7199103125143865
2.82E9                   -0.4599131845993782      -0.6812947042925105
2.85E9                   -0.517958576453331       -0.6373917015788162
2.88E9                   -0.571807980331637       -0.5885608633758621
2.91E9                   -0.6210427549113473      -0.535201146558499
2.94E9                   -0.6652822610221811      -0.47774749853491055
2.97E9                   -0.704187036430202       -0.416667124865961
3.0E9                    -0.7374615663741184      -0.3524554902208908
3.03E9                   -0.764856644373319       -0.28563209728052513
3.06E9                   -0.7861713157737116      -0.216736081644592
3.09E9                   -0.8012543945442101      -0.14632165961757496
3.12E9                   -0.8100055438551371      -0.07495346696667118
3.15E9                   -0.8123759128214726      -0.0032018288197326987
3.18E9                   -0.8083683250790736      0.06836199712212605
3.21E9                   -0.7980370191245654      0.13917056088962787
3.24E9                   -0.7814869449738882      0.20866490045203576
3.27E9                   -0.7588726264709326      0.2762991188204772
3.3E9                    -0.7303966031714159      0.341544816373284
3.33E9                   -0.6963074700967624      0.40389533847408476
3.36E9                   -0.6568975376042859      0.4628698010739231
3.39E9                   -0.6125001373019094      0.5180168595679435
3.42E9                   -0.5634866031230726      0.5689181895201225
3.45E9                   -0.510262959565957       0.6151916511887555
3.48E9                   -0.4532663515685186      0.6564941135383001
3.51E9                   -0.3929612525038415      0.6925239173760338
3.54E9                   -0.3298354883288692      0.7230229614229577
3.57E9                   -0.26439611704146826     0.7477783994170555
3.6E9                    -0.19716520304687535     0.7666239408372602
3.63E9                   -0.12867552591187703     0.7794407523125111
3.66E9                   -0.059466262192685096    0.78615796114663
3.69E9                   0.009921322665068467     0.7867527664937481
3.72E9                   0.07894813742531621      0.7812501671443253
3.75E9                   0.14708145089415758      0.7697223175860426
3.78E9                   0.21379897068710144      0.7522875257417102
3.81E9                   0.27859278737273474      0.7291089068037537
3.84E9                   0.34097315752159346      0.7003927081984584
3.87E9                   0.4004720997436259       0.6663863215687029
3.9E9                    0.45664677738166404      0.627375999354456
3.93E9                   0.5090826413022826       0.5836842964856931
3.96E9                   0.5573963065664815       0.535667262142537
3.99E9                   0.6012381390689051       0.48371141197967016
4.02E9                   0.6402945330630448       0.42823051673170903
4.05E9                   0.6742898681562487       0.36966224712171053
4.08E9                   0.7029881440440591       0.3084647156347504
4.11E9                   0.7261943007851024       0.24511295206344733
4.14E9                   0.7437552392889533       0.18009534173047775
4.17E9                   0.7555605584239896       0.11391004558188639
4.2E9                    0.761543021591805        0.04706141285997842
4.23E9                   0.7616787586301182       -0.019943606668610718
4.26E9                   0.7559872023674391       -0.08659904245655
4.29E9                   0.7445307561972314       -0.15240346135295343
4.32E9                   0.7274141907648741       -0.21686348556656587
4.35E9                   0.7047837724306494       -0.27949724990420427
4.38E9                   0.6768261303534484       -0.3398377796701887
4.41E9                   0.6437668701359609       -0.39743627461664716
4.44E9                   0.6058689394886496       -0.45186528748633337
4.47E9                   0.5634307471058568       -0.5027217853949195
4.5E9                    0.5167840326075507       -0.5496300784096243
4.53E9                   0.46629148533859177      -0.5922445933522517
4.56E9                   0.4123441136182761       -0.6302524647858102
4.59E9                   0.35535837301340173      -0.6633759111580574
4.62E9                   0.2957730706058998       -0.6913743635527285
4.65E9                   0.23404607031428615      -0.7140463173943689
4.68E9                   0.17065083067069545      -0.7312308831410549
4.71E9                   0.10607281010468875      -0.7428090194133707
4.74E9                   0.040805775316866466     -0.7487044397366891
4.77E9                   -0.024651954098317042    -0.7488841906443583
4.8E9                    -0.08980129581996171     -0.7433589029231238
4.83E9                   -0.154146205311414       -0.7321827187958152
4.86E9                   -0.21719746504896628     -0.7154528962649755
4.89E9                   -0.27847644093453355     -0.6933090893068066
4.92E9                   -0.33751878184324335     -0.6659323009190974
4.95E9                   -0.39387803417132017     -0.6335435065270993
4.98E9                   -0.4471291391352873      -0.5964019482791848
5.01E9                   -0.49687177772375374     -0.5548031057103229
5.04E9                   -0.5427335270362658      -0.5090763543316813
5.07E9                   -0.5843727923755367      -0.45958233009161725
5.1E9                    -0.6214814818257319      -0.4067100239362218
5.13E9                   -0.6537873941330355      -0.350873636416188
5.16E9                   -0.6810562965321483      -0.29250922682294495
5.19E9                   -0.7030936763601165      -0.2320711937339473
5.22E9                   -0.7197461576931347      -0.170028623302094
5.25E9                   -0.7309025800089974      -0.10686153798529618
5.28E9                   -0.7364947381297982      -0.04305707341090995
5.31E9                   -0.736497781126197       0.020894392808837304
5.34E9                   -0.7309302641543668      0.08450313670728675
5.37E9                   -0.7198538444188645      0.14728398037238458
5.4E9                    -0.7033726133557588      0.20876014660280823
5.43E9                   -0.6816320626081174      0.2684670349310294
5.46E9                   -0.6548176901531484      0.3259558745288069
5.49E9                   -0.6231532628880555      0.38079720978884335
5.52E9                   -0.5868987611752914      0.43258417837208984
5.55E9                   -0.5463480381637655      0.4809355480098
5.58E9                   -0.5018262316573672      0.525498486794756
5.61E9                   -0.45368696832079536     0.565951051316963
5.64E9                   -0.40230939836239427     0.6020043869075731
5.67E9                   -0.34809509298708785     0.633404642521453
5.7E9                    -0.2914648275886746      0.6599346068302067
5.73E9                   -0.23285526392883665     0.6814150694736214
5.76E9                   -0.1727155392715421      0.69770590250077
5.79E9                   -0.11150377377057925     0.7087068459837679
5.82E9                   -0.049683519364261214    0.7143579755576428
5.85E9                   0.012279811397247542     0.7146398335843097
5.88E9                   0.07392248795399681      0.7095732196010918
5.91E9                   0.1347859272363648       0.6992186536346385
5.94E9                   0.19442004365481652      0.683675540109063
5.97E9                   0.2523864599095788       0.6630810656732298
6.0E9                    0.30826156814337086      0.6376088615529437
