% Model:              three_layers reality at 0.1mm.mph
% Version:            COMSOL 5.6.0.280
% Date:               Feb 25 2022, 15:09
% Table:              表格 1 - 全局计算 1
% freq (Hz)              real(emw.S11) (1)        imag(emw.S11) (1)
300000000                0.5436597558165023       -0.728321410381395
330000000                0.4751139961349809       -0.7732306460737588
360000000                0.4029910414179135       -0.8118288937874811
390000000                0.32784952496328085      -0.8438230862541977
420000000                0.2502765147239064       -0.8689707659488364
450000000                0.17088187277491917      -0.8870825371953134
480000000                0.0902927433551323       -0.8980240419263343
510000000                0.009148078673908168     -0.9017174555534417
540000000                -0.07190683511104759     -0.8981424965582886
570000000                -0.15222585644371842     -0.8873369423405397
600000000                -0.23116745785156498     -0.8693966447650601
630000000                -0.3081001596279368      -0.8444750409662686
660000000                -0.38240789328361074     -0.8127821581210712
690000000                -0.45349525523012685     -0.774583114597284
720000000                -0.5207926067481783      -0.7301961247533676
750000000                -0.5837609756925973      -0.6799900190345404
780000000                -0.6418967136183528      -0.6243812965864114
810000000                -0.6947358629168671      -0.5638307326779297
840000000                -0.7418581896430837      -0.49883956868609014
870000000                -0.7828908400366075      -0.42994531757599896
900000000                -0.8175115818452117      -0.3577172227362255
930000000                -0.8454515952837272      -0.2827514127780196
960000000                -0.8664977831504617      -0.20566579877818045
990000000                -0.8804945745609795      -0.12709476449177615
1020000000               -0.8873452026516987      -0.047683702436675725
1050000000               -0.8870124424925477      0.03191654883845115
1080000000               -0.8795188018415477      0.11105530941669023
1110000000               -0.8649461638899365      0.18908764794283442
1140000000               -0.8434348876404951      0.2653798993318183
1170000000               -0.8151823779834736      0.33931505516258387
1200000000               -0.7804411437173621      0.41029797282882563
1230000000               -0.739516367681588       0.47776035247720705
1260000000               -0.6927630184279615      0.5411654344822645
1290000000               -0.6405825378099064      0.6000123739786204
1320000000               -0.5834191431375859      0.6538402536376845
1350000000               -0.5217557858588299      0.7022317011585903
1380000000               -0.45610981183120675     0.7448160829042726
1410000000               -0.38702837022079156     0.7812722508612187
1440000000               -0.315083619209583       0.811330825800509
1470000000               -0.24086777766534412     0.8347760048359236
1500000000               -0.16498807148750316     0.8514468873034986
1530000000               -0.08806162286936381     0.8612383179558629
1560000000               -0.010710329205707227    0.8641012515141704
1590000000               0.06644422337348654      0.8600426471390613
1620000000               0.14278576899831794      0.8491249055706831
1650000000               0.2177082537779933       0.8314648654083856
1680000000               0.29062057277023995      0.8072323782351121
1710000000               0.36095111830840987      0.776648485058951
1740000000               0.4281521088798343       0.7399832187901302
1770000000               0.49170367079289634      0.697553059371649
1800000000               0.5511176483881336       0.6497180695436807
1830000000               0.60594112167895         0.5968787401774688
1860000000               0.655759613252344        0.5394725748537266
1890000000               0.7001999692595163       0.47797044364470676
1920000000               0.7389329020287942       0.4128727362199289
1950000000               0.7716751844649181       0.34470534412902715
1980000000               0.7981914885929791       0.2740155020390142
2010000000               0.8182958629202446       0.20136751717656348
2040000000               0.8318528452341323       0.12733841571123558
2070000000               0.8387782092444923       0.0525135345025563
2100000000               0.8390393452930494       -0.02251791424385684
2130000000               0.8326552768780098       -0.09716727803543665
2.16E9                   0.8196963163657434       -0.17085087251337183
2.19E9                   0.8002833647186538       -0.24299433719308228
2.22E9                   0.7745868615490501       -0.31303691344576745
2.25E9                   0.742825393164533        -0.3804356204835905
2.28E9                   0.7052639673845267       -0.4446693064105322
2.31E9                   0.6622119647903482       -0.5052425525644391
2.34E9                   0.6140207757146474       -0.5616894116329014
2.37E9                   0.5610811312025756       -0.6135769608624744
2.4E9                    0.5038201324862864       -0.6605086527075046
2.43E9                   0.44269797827827734      -0.7021274422751445
2.46E9                   0.37820438318884353      -0.7381186623267606
2.49E9                   0.3108546780991045       -0.7682125992314965
2.52E9                   0.2411855948283007       -0.7921866965487351
2.55E9                   0.16975077326217552      -0.8098672878160015
2.58E9                   0.09711609402977928      -0.8211307599918428
2.61E9                   0.023855011458414666     -0.8259041049700578
2.64E9                   -0.04945591668347138     -0.8241649348932004
2.67E9                   -0.12224118866815417     -0.8159411619254509
2.7E9                    -0.1939302673279551      -0.8013105733437815
2.73E9                   -0.2639614485597129      -0.7804004125327367
2.76E9                   -0.33178590923745344     -0.7533868777610007
2.79E9                   -0.3968720148849764      -0.7204943188533668
2.82E9                   -0.4587097951658281      -0.6819939251842829
2.85E9                   -0.5168154018450779      -0.6382018108374398
2.88E9                   -0.5707353712142536      -0.589476518227271
2.91E9                   -0.6200505721796733      -0.5362160240970409
2.94E9                   -0.6643797811036305      -0.47885434198719107
2.97E9                   -0.7033828610429214      -0.41785779936711853
3.0E9                    -0.7367635378017912      -0.35372104764143547
3.03E9                   -0.7642717672274508      -0.2869628495126057
3.06E9                   -0.7857056861288185      -0.218121681706331
3.09E9                   -0.8009131373023366      -0.14775118969598328
3.12E9                   -0.8097927590256332      -0.07641553256098915
3.15E9                   -0.8122946313394839      -0.004684658018752707
3.18E9                   -0.8084204746664905      0.06687045031280298
3.21E9                   -0.7982234005538763      0.13768251017289826
3.24E9                   -0.7818072189970424      0.20719261898669164
3.27E9                   -0.7593253115244446      0.27485483021514706
3.3E9                    -0.7309790838565002      0.340140586020468
3.33E9                   -0.6970160162959285      0.4025429663718983
3.36E9                   -0.6577273339810527      0.46158071720620253
3.39E9                   -0.6134453228066393      0.5168020228824964
3.42E9                   -0.5645403200261683      0.5677879914883345
3.45E9                   -0.5114174114428899      0.6141558248483001
3.48E9                   -0.45451286957165743     0.6555616488524838
3.51E9                   -0.3942903691673717      0.6917029836631253
3.54E9                   -0.33123701810887773     0.7223208374935708
3.57E9                   -0.26585924274608214     0.7472014119630326
3.6E9                    -0.19867856724612418     0.766177411533497
3.63E9                   -0.13022732642948576     0.7791289539661863
3.66E9                   -0.06104435071659556     0.7859840831500929
3.69E9                   0.008329339721805162     0.7867188897060152
3.72E9                   0.07735479678860546      0.7813572482729068
3.75E9                   0.14549932987305478      0.76997018301897
3.78E9                   0.21224058509957386      0.7526748747141238
3.81E9                   0.27707049074688417      0.729633323701492
3.84E9                   0.33949904238780954      0.7010506837369923
3.87E9                   0.3990579017569642       0.6671732825219635
3.9E9                    0.45530378298332563      0.6282863464477721
3.93E9                   0.5078215995529368       0.5847114500300931
3.96E9                   0.5562273457657192       0.53680371492745
3.99E9                   0.6001706886942206       0.4849487889132757
4.02E9                   0.639337251513765        0.42955964068516383
4.05E9                   0.6734505767350442       0.3710732103963284
4.08E9                   0.7022737675446312       0.3099469564627924
4.11E9                   0.7256108149733986       0.2466553355634695
4.14E9                   0.7433076255653405       0.18168624469209105
4.17E9                   0.755252765856713        0.1155374445073155
4.2E9                    0.7613779365055315       0.048712974649583754
4.23E9                   0.7616581818850225       -0.018280431954263418
4.26E9                   0.7561118344376674       -0.08493692737457352
4.29E9                   0.7448001901262775       -0.1507551059557889
4.32E9                   0.7278269130330504       -0.21524152202822405
4.35E9                   0.7053371717446866       -0.27791414744154047
4.38E9                   0.6775165143241537       -0.33830575039845856
4.41E9                   0.6445894897771404       -0.39596718092434974
4.44E9                   0.6068180214381116       -0.45047055153932647
4.47E9                   0.5644995334348021       -0.5014123013603832
4.5E9                    0.517964828051963        -0.5484161280179884
4.53E9                   0.46757571171840273      -0.5911357654250265
4.56E9                   0.4137223711899154       -0.6292575793266815
4.59E9                   0.35682050842483304      -0.662502948631852
4.62E9                   0.29730825104995356      -0.6906303999620638
4.65E9                   0.23564286342973198      -0.7134374657221593
4.68E9                   0.1722972896754838       -0.7307622417055698
4.71E9                   0.10775656357161233      -0.7424846276457595
4.74E9                   0.04251412096078031      -0.7485272418306078
4.77E9                   -0.022931952295010306    -0.7488560074724897
4.8E9                    -0.08808270786964112     -0.7434804125716833
4.83E9                   -0.15244213364159834     -0.732453445993205
4.86E9                   -0.2155209418462536      -0.7158712109274611
4.89E9                   -0.27684032528117675     -0.693872214350438
4.92E9                   -0.33593565747187715     -0.6666363294175132
4.95E9                   -0.3923601087227424      -0.6343834282133036
4.98E9                   -0.4456881458440348      -0.5973716852830171
5.01E9                   -0.49551888039933306     -0.5558955573550595
5.04E9                   -0.5414792292499533      -0.5102834506865753
5.07E9                   -0.5832268517137499      -0.4608950938923436
5.1E9                    -0.6204528300378205      -0.40811864038037315
5.13E9                   -0.6528840639563535      -0.3523675302446479
5.16E9                   -0.680285355892615       -0.2940771460213044
5.19E9                   -0.7024611705779811      -0.2337012991187437
5.22E9                   -0.7192570602534781      -0.17170858317232432
5.25E9                   -0.730560752355348       -0.10857862698676629
5.28E9                   -0.7363028988395443      -0.04479827475204833
5.31E9                   -0.7364574847824544      0.019142282779343503
5.34E9                   -0.7310418900849234      0.08275340246474094
5.37E9                   -0.7201165954071599      0.14554988071749309
5.4E9                    -0.7037845243131748      0.20705480871142834
5.43E9                   -0.6821900190832633      0.26680334993506744
5.46E9                   -0.6555174564332779      0.32434639558571376
5.49E9                   -0.6239895193476072      0.37925405360398656
5.52E9                   -0.5878651504132711      0.43111893101551835
5.55E9                   -0.5474372193824082      0.47955917586170865
5.58E9                   -0.5030299426707331      0.5242212533105942
5.61E9                   -0.45499609450508366     0.56478244027064
5.64E9                   -0.40371404784563475     0.6009530326296287
5.67E9                   -0.3495846773238782      0.632478267611779
5.7E9                    -0.2930281471716358      0.659139967709202
5.73E9                   -0.2344805973752685      0.680757910090242
5.76E9                   -0.17439073598651014     0.6971909164569622
5.79E9                   -0.11321634888884341     0.708337647249844
5.82E9                   -0.05142075025616606     0.7141370778832664
5.85E9                   0.01053078790844566      0.7145686386183958
5.88E9                   0.07217457845542992      0.7096520136240572
5.91E9                   0.13305198545666688      0.6994466127266739
5.94E9                   0.19271277578490675      0.684050743495074
5.97E9                   0.2507183321422854       0.663600516938055
6.0E9                    0.3066447170454476       0.6382685173883496
