% Model:              three_layers reality at 0.1mm.mph
% Version:            COMSOL 5.6.0.280
% Date:               Feb 21 2022, 15:27
% Table:              表格 1 - 全局计算 1
% freq (Hz)              real(emw.S11) (1)        imag(emw.S11) (1)
300000000                0.6001676153831514       -0.7306513378746549
330000000                0.5342708283973512       -0.7794319150269647
360000000                0.4645188624004412       -0.8223437236157711
390000000                0.39142213023334965      -0.8590795016173107
420000000                0.3155177149606795       -0.8893769428204177
450000000                0.23736483365664648      -0.9130208599604308
480000000                0.15754031095213358      -0.9298449571117864
510000000                0.07663402822593124      -0.9397332075613651
540000000                -0.004755658721187573    -0.9426208335131065
570000000                -0.08602652439407664     -0.9384948844595972
600000000                -0.16657708164810306     -0.9273944121536224
630000000                -0.2458111678310412      -0.9094102423723256
660000000                -0.3231424815708896      -0.8846843457573157
690000000                -0.39799903909606105     -0.85340881265763
720000000                -0.4698275188957662      -0.8158244397200006
750000000                -0.538097463040878       -0.7722189385579977
780000000                -0.6023053030319627      -0.7229247801996399
810000000                -0.6619781797198473      -0.6683166914172068
840000000                -0.7166775274063135      -0.6088088221325905
870000000                -0.766002393567588       -0.54485160607472
900000000                -0.8095924683676364      -0.47692833874985585
930000000                -0.8471307992347777      -0.40555150010526725
960000000                -0.8783461689789024      -0.33125885090827767
990000000                -0.9030151184161874      -0.25460933387857143
1020000000               -0.9209635972407327      -0.17617881259814822
1050000000               -0.9320682301418014      -0.09655568248257991
1080000000               -0.9362571884099374      -0.016336388973817614
1110000000               -0.933510660486467       0.06387911058390526
1140000000               -0.9238609184847898      0.14349190517922136
1170000000               -0.9073919810424116      0.22190867147713078
1200000000               -0.8842388763443259      0.29854616217285374
1230000000               -0.8545865125090855      0.3728356054617218
1260000000               -0.8186681658493387      0.44422698077892814
1290000000               -0.7767636006740919      0.5121931372268359
1320000000               -0.7291968372543787      0.5762337227855283
1350000000               -0.6763335874320427      0.6358788940492098
1380000000               -0.6185783800435699      0.690692778302996
1410000000               -0.5563714004436776      0.7402766623912252
1440000000               -0.49018507078720747     0.7842718849114417
1470000000               -0.42052039941257346     0.8223624112281691
1500000000               -0.3479031291088755      0.8542770735590214
1530000000               -0.27287971570263797     0.8797914610872702
1560000000               -0.19601316872062569     0.8987294483740229
1590000000               -0.11787878725626211     0.9109643529627974
1620000000               -0.03905982390093339     0.9164197163674954
1650000000               0.03985688968887438      0.9150697054145192
1680000000               0.11828532277147162      0.906939133967955
1710000000               0.19564459819941593      0.8921031078307338
1740000000               0.27136328571297524      0.8706862984428119
1770000000               0.3448836049033499       0.8428618535872776
1800000000               0.41566550760457305      0.8088499558720099
1830000000               0.48319061089018744      0.768916042167362
1860000000               0.5469659534656961       0.7233686993203399
1890000000               0.6065275495453311       0.6725572536392506
1920000000               0.6614437161515657       0.6168690735949159
1950000000               0.711318151865934        0.5567266066722072
1980000000               0.7557927465223244       0.4925841733425997
2010000000               0.7945501040275791       0.4249245419560255
2040000000               0.8273157621621764       0.35425531006473965
2070000000               0.8538600959046132       0.2811051181009591
2100000000               0.8739998928503852       0.20601972231157242
2130000000               0.8875995917064134       0.12955795394179745
2.16E9                   0.8945721768574363       0.05228759136290565
2.19E9                   0.8948797233605661       -0.025218828640235603
2.22E9                   0.8885335870646167       -0.10238823496647183
2.25E9                   0.8755942333738134       -0.17865125551381522
2.28E9                   0.8561706960603495       -0.253446430763201
2.31E9                   0.8304196572015403       -0.3262243701633995
2.34E9                   0.7985441462764812       -0.39645180229676913
2.37E9                   0.760791875676209        -0.4636154615823982
2.4E9                    0.717453257074848        -0.5272257631840506
2.43E9                   0.6688591592474726       -0.5868202497050508
2.46E9                   0.615378452104936        -0.6419668312012511
2.49E9                   0.5574153389260718       -0.692266851297691
2.52E9                   0.4954064451074416       -0.7373579832589345
2.55E9                   0.4298176348940267       -0.7769169178362425
2.58E9                   0.36114055999307554      -0.8106617832301499
2.61E9                   0.2898889748930888       -0.8383542461166185
2.64E9                   0.21659486761480942      -0.8598012637260237
2.67E9                   0.1418044521361228       -0.8748564751293053
2.7E9                    0.06607406168368134      -0.8834212285945355
2.73E9                   -0.010034023997467757    -0.8854452444955122
2.76E9                   -0.08595578714973513     -0.8809269134142227
2.79E9                   -0.16112968674124328     -0.8699132293212722
2.82E9                   -0.23500084943938263     -0.8524993587607068
2.85E9                   -0.3070252063405996      -0.8288278488804961
2.88E9                   -0.376673544670732       -0.7990874795356137
2.91E9                   -0.443435443643128       -0.7635117674663904
2.94E9                   -0.5068230642302134      -0.7223771333567853
2.97E9                   -0.5663747633755644      -0.6760007454511034
3.0E9                    -0.621658504486301       -0.6247380561055249
3.03E9                   -0.6722750372888872      -0.5689800504837006
3.06E9                   -0.7178608223426525      -0.509150228818678
3.09E9                   -0.758090677169844       -0.44570134625360325
3.12E9                   -0.7926801235426942      -0.37911193615651034
3.15E9                   -0.8213874178567324      -0.30988264474138333
3.18E9                   -0.8440152492819286      -0.23853240633865858
3.21E9                   -0.8604120931951279      -0.16559448991835157
3.24E9                   -0.8704732103319787      -0.09161244846821548
3.27E9                   -0.874141285109955       -0.017136003259448317
3.3E9                    -0.8714066994650849      0.0572831041919207
3.33E9                   -0.8623074416096692      0.13109526022305706
3.36E9                   -0.8469286519043223      0.2037570945037464
3.39E9                   -0.8254018109371208      0.2747355310579573
3.42E9                   -0.7979035776282478      0.3435117433943181
3.45E9                   -0.7646542879494396      0.40958498309899893
3.48E9                   -0.7259161275752434      0.4724762522328041
3.51E9                   -0.6819909944565912      0.5317317911939524
3.54E9                   -0.6332180701868126      0.5869263549300825
3.57E9                   -0.5799711215394119      0.6376662526347605
3.6E9                    -0.5226555562315092      0.6835921280927797
3.63E9                   -0.46170525917061245     0.7243814607003002
3.66E9                   -0.39757923708609844     0.7597507703611772
3.69E9                   -0.33075810083685786     0.7894575125953275
3.72E9                   -0.2617404151963525      0.8133016536177782
3.75E9                   -0.19103894632101498     0.8311269182614792
3.78E9                   -0.11917683688673116     0.8428217068115308
3.81E9                   -0.046683738526258095    0.8483196798646271
3.84E9                   0.025908069993060858     0.847600013358004
3.87E9                   0.09806755183447696      0.8406873284952884
3.9E9                    0.16926874381920048      0.8276513031607223
3.93E9                   0.23899452800597523      0.8086059722350355
3.96E9                   0.3067403220654013       0.7837087241482333
3.99E9                   0.3720176677107674       0.7531590005716993
4.02E9                   0.4343576956205819       0.7171967061640543
4.05E9                   0.4933144440083528       0.6761003363782522
4.08E9                   0.5484680068076265       0.6301848336472812
4.11E9                   0.5994274869623988       0.5797991856749188
4.14E9                   0.6458337313481786       0.525323783203392
4.17E9                   0.6873618258739097       0.46716755809290433
4.2E9                    0.7237233324498352       0.4057649250560804
4.23E9                   0.7546682528089452       0.3415725520103016
4.26E9                   0.7799867074977169       0.2750659846282119
4.29E9                   0.7995103212554366       0.20673615037435625
4.32E9                   0.8131133080925995       0.1370857669221405
4.35E9                   0.8207132510012123       0.0666256794123292
4.38E9                   0.8222715724770094       -0.004128849340384727
4.41E9                   0.8177936931347433       -0.07466187108719775
4.44E9                   0.8073288771244631       -0.1444604819730879
4.47E9                   0.7909697647392779       -0.2130185243588616
4.5E9                    0.7688515947212334       -0.279840234568623
4.53E9                   0.7411511211099712       -0.34444381042565575
4.56E9                   0.7080852320375044       -0.40636487250116504
4.59E9                   0.6699092804307469       -0.46515979369657257
4.62E9                   0.6269151390739787       -0.5204088728211541
4.65E9                   0.5794289947852926       -0.5717193292501797
4.68E9                   0.5278088983206349       -0.6187280975912148
4.71E9                   0.4724420880426319       -0.6611044031597701
4.74E9                   0.4137421063480659       -0.6985521008274548
4.77E9                   0.35214572848703124      -0.7308117612238105
4.8E9                    0.28810972427375         -0.7576624891871022
4.83E9                   0.22210747432694422      -0.7789234601567433
4.86E9                   0.15462546435818095      -0.7944551610848576
4.89E9                   0.08615968320962182      -0.8041603240172912
4.92E9                   0.017211952407156696     -0.8079845429042467
4.95E9                   -0.05171378305152246     -0.8059165673116413
4.98E9                   -0.12011517207638321     -0.7979882704939151
5.01E9                   -0.18749515242221249     -0.7842742932040534
5.04E9                   -0.25336559325939295     -0.7648913684077708
5.07E9                   -0.31725085742301257     -0.7399973353435594
5.1E9                    -0.37869125745165405     -0.7097898538096641
5.13E9                   -0.43724638207282357     -0.6745048309479437
5.16E9                   -0.49249827155802955     -0.6344145732459294
5.19E9                   -0.5440544211874305      -0.589825676551465
5.22E9                   -0.5915505918650455      -0.5410766672589286
5.25E9                   -0.6346534058470706      -0.4885354096465642
5.28E9                   -0.6730627052294702      -0.43259629758411444
5.31E9                   -0.7065136520539557      -0.3736772530790185
5.34E9                   -0.7347785520927382      -0.31221655815023586
5.37E9                   -0.7576683892080077      -0.24866954884579773
5.4E9                    -0.7750340621295649      -0.1835052004654968
5.43E9                   -0.786767319424386       -0.11720263167118486
5.46E9                   -0.7928013907698978      -0.0502475531249357
5.49E9                   -0.7931113135892081      0.01687131543423033
5.52E9                   -0.7877139542883923      0.08366583623829012
5.55E9                   -0.7766677236594571      0.14965202886397214
5.58E9                   -0.7600719868735097      0.21435360506755147
5.61E9                   -0.7380661702248319      0.2773054365915211
5.64E9                   -0.7108285694261496      0.33805692826568284
5.67E9                   -0.6785748678257351      0.3961752677995714
5.7E9                    -0.6415563773257009      0.451248523726063
5.73E9                   -0.6000580194548845      0.5028885647556132
5.76E9                   -0.5543960683205243      0.5507337770892095
5.79E9                   -0.5049156796466099      0.5944515612590119
5.82E9                   -0.4519882304659135      0.6337405949392866
5.85E9                   -0.39600849218444395     0.6683328520903188
5.88E9                   -0.33739165762875817     0.6979953701761501
5.91E9                   -0.27657024124776797     0.7225317571151842
5.94E9                   -0.21399087230456226     0.7417834287521339
5.97E9                   -0.1501110025570899      0.755630567833891
6.0E9                    -0.08539555242911662     0.7639927967421811
