% Model:              three_layers reality at 0.1mm.mph
% Version:            COMSOL 5.6.0.280
% Date:               Mar 8 2022, 16:35
% Table:              表格 1 - 全局计算 1
% freq (Hz)              real(emw.S11) (1)        imag(emw.S11) (1)
300000000                0.44605906633482634      -0.8331138585141802
330000000                0.3553968789264495       -0.873334997606309
360000000                0.26136170685435084      -0.9038667382197169
390000000                0.16495073150127146      -0.9244399558018467
420000000                0.06718749257262609      -0.9348853726228914
450000000                -0.03088940476980149     -0.9351372640826047
480000000                -0.12823781247217525     -0.925235522800345
510000000                -0.22382362597094688     -0.9053261917706167
540000000                -0.3166322825896907      -0.8756605551017957
570000000                -0.4056800297536838      -0.8365928637602622
600000000                -0.4900248289384417      -0.7885767704197595
630000000                -0.5687767677703447      -0.7321605495468808
660000000                -0.6411078608985531      -0.6679811836015407
690000000                -0.7062611276422482      -0.5967574031627926
720000000                -0.7635588436790086      -0.5192817765029907
750000000                -0.8124098742380346      -0.436411951728743
780000000                -0.852316006976608       -0.3490611626430311
810000000                -0.8828772153353217      -0.25818811574331424
840000000                -0.9037957956636801      -0.16478638208860846
870000000                -0.9148793354447776      -0.06987342190635609
900000000                -0.9160424839196994      0.025520626699428218
930000000                -0.9073075110799087      0.12036426205977431
960000000                -0.888803655617775       0.21363590345195146
990000000                -0.8607652770230925      0.30433501456404577
1020000000               -0.8235288412046229      0.3914929376547144
1050000000               -0.7775287828249327      0.4741833153896776
1080000000               -0.7232923005721661      0.5515319831147697
1110000000               -0.6614331536582109      0.622726222494846
1140000000               -0.5926445390427542      0.6870232760316315
1170000000               -0.5176911386843113      0.7437580322760624
1200000000               -0.43740043476694945     0.7923498024634253
1230000000               -0.3526533980765482      0.832308121114198
1260000000               -0.264374660359508       0.8632375155693318
1290000000               -0.17352228590159627     0.8848412021272042
1320000000               -0.08107726020110562     0.8969236795314043
1350000000               0.011967185055558006     0.899392203552841
1380000000               0.104616291645727        0.8922571393153501
1410000000               0.1958844216210899       0.8756312006189572
1440000000               0.28480551664255316      0.8497275976897116
1470000000               0.3704432592742222       0.8148571263861796
1500000000               0.45190083095797         0.7714242427593834
1530000000               0.5283301674206292       0.7199221770955577
1560000000               0.5989406196821648       0.6609271507306662
1590000000               0.6630069364423768       0.595091767400615
1620000000               0.7198764924082571       0.5231376582200354
1650000000               0.7689756961937952       0.4458474658184131
1680000000               0.8098155210742594       0.3640562585327846
1710000000               0.8419961118002111       0.2786424699772256
1740000000               0.8652104310796713       0.19051846249361518
1770000000               0.8792469196721975       0.10062081542055488
1800000000               0.8839911548135512       0.009900440193967318
1830000000               0.8794265023805115       -0.08068737559303328
1860000000               0.865633769012844        -0.17019289407339927
1890000000               0.8427898712747037       -0.2576817243758025
1920000000               0.8111655496302564       -0.34224439656746997
1950000000               0.7711221655129151       -0.4230056233705384
1980000000               0.7231076296245107       -0.49913316902041727
2010000000               0.6676515180477343       -0.5698462557692378
2040000000               0.6053594383476923       -0.6344234536192513
2070000000               0.5369067077829056       -0.692210018245719
2100000000               0.4630313954432433       -0.7426246650744099
2130000000               0.38452675245250706      -0.7851657904433447
2.16E9                   0.3022330010160582       -0.8194171623112615
2.19E9                   0.21702836883445561      -0.8450530798096358
2.22E9                   0.12981915374347164      -0.8618429016640603
2.25E9                   0.04152854106918298      -0.8696546202346657
2.28E9                   -0.046915994580725956    -0.8684567997891064
2.31E9                   -0.13459640476070156     -0.8583178354922707
2.34E9                   -0.2206176991073285      -0.839401498148083
2.37E9                   -0.3041193145137787      -0.8119586152221349
2.4E9                    -0.38428194351536843     -0.7763165636250249
2.43E9                   -0.4603292064456569      -0.7328699422168407
2.46E9                   -0.5315264056067539      -0.6820755726174142
2.49E9                   -0.5971803861641903      -0.6244523382551893
2.52E9                   -0.6566435114195408      -0.5605832702925063
2.55E9                   -0.7093218671652214      -0.4911162522111169
2.58E9                   -0.7546855321381306      -0.41676110259508636
2.61E9                   -0.7922783991898187      -0.3382829119805936
2.64E9                   -0.8217260055050976      -0.25649279508488
2.67E9                   -0.8427409580828306      -0.17223740517093108
2.7E9                    -0.8551262037652754      -0.08638816298678939
2.73E9                   -0.8587765862917269      1.693095957373122E-4
2.76E9                   -0.8536790753680639      0.08654537098803153
2.79E9                   -0.8399119268056805      0.17185612322179844
2.82E9                   -0.8176429246622248      0.25523276761947794
2.85E9                   -0.787126787605958       0.33583055842501097
2.88E9                   -0.7487017868110533      0.4128373406265932
2.91E9                   -0.702785609906463       0.48548163881874634
2.94E9                   -0.6498705051409277      0.5530402501969843
2.97E9                   -0.5905177457290411      0.6148452868073255
3.0E9                    -0.5253514626702506      0.6702906094196145
3.03E9                   -0.4550519031215591      0.7188375966518455
3.06E9                   -0.38034817990935166     0.7600201971208144
3.09E9                   -0.30201058488870425     0.7934492191251613
3.12E9                   -0.2208425447444883      0.8188158206175897
3.15E9                   -0.13767230147741785     0.8358941718507604
3.18E9                   -0.053344401395871266    0.8445432731083296
3.21E9                   0.03128892447718919      0.8447079196064865
3.24E9                   0.11537640850686622      0.8364188139410637
3.27E9                   0.19807634737193283      0.8197918325274158
3.3E9                    0.2785650841721436       0.7950264557724825
3.33E9                   0.3560453030433543       0.7624033724235677
3.36E9                   0.42975406722703263      0.7222812675910515
3.39E9                   0.49897052737820413      0.6750928030451089
3.42E9                   0.5630232183067022       0.6213397998434739
3.45E9                   0.6212968503152272       0.561587639849934
3.48E9                   0.6732384881900508       0.4964589164729365
3.51E9                   0.7183630000432523       0.4266263878275587
3.54E9                   0.756257654979601        0.3528053167604546
3.57E9                   0.7865857575149882       0.2757453188755223
3.6E9                    0.8090892312131246       0.196221875630333
3.63E9                   0.8235901036327875       0.11502769649456152
3.66E9                   0.82999089374565         0.032964125865420184
3.69E9                   0.8282739534719156       -0.04916721618251302
3.72E9                   0.8184998590066836       -0.13057239177563817
3.75E9                   0.8008049824668643       -0.21047256484754617
3.78E9                   0.7753984022321657       -0.2881107815924557
3.81E9                   0.7425583338375031       -0.36275805466317707
3.84E9                   0.7026282784238206       -0.4337187518240424
3.87E9                   0.6560130794338257       -0.5003353635728643
3.9E9                    0.6031750342278248       -0.5619928024172823
3.93E9                   0.5446301191421794       -0.6181224435998834
3.96E9                   0.4809442684672727       -0.6682061235758378
3.99E9                   0.4127295341207893       -0.7117802527020919
4.02E9                   0.34063988358615926      -0.7484400823191835
4.05E9                   0.2653663955290629       -0.7778440280367788
4.08E9                   0.1876316856672558       -0.7997178340251803
4.11E9                   0.10818351463940168      -0.8138583015588163
4.14E9                   0.027787657147798586     -0.8201363108855868
4.17E9                   -0.05277978732334798     -0.8184989282578183
4.2E9                    -0.13274040830477887     -0.8089704844685044
4.23E9                   -0.21132158651742508     -0.7916526085197262
4.26E9                   -0.28776448693601103     -0.7667232759939181
4.29E9                   -0.36133180537052595     -0.7344349725603421
4.32E9                   -0.43131519110049865     -0.6951120774302105
4.35E9                   -0.49704231045048525     -0.6491475490349199
4.38E9                   -0.5578835326365587      -0.5969989617502316
4.41E9                   -0.6132582117292188      -0.5391839142284215
4.44E9                   -0.6626405168594919      -0.47627481731806426
4.47E9                   -0.7055647386804911      -0.40889307546509557
4.5E9                    -0.7416299834088087      -0.33770269605778164
4.53E9                   -0.7705041615232094      -0.26340338970036553
4.56E9                   -0.791927187666023       -0.18672325387987587
4.59E9                   -0.805713330059094       -0.10841115736310339
4.62E9                   -0.8117526793074199      -0.029228957921625998
4.65E9                   -0.8100117432780364      0.05005631238791902
4.68E9                   -0.8005332099475884      0.12868017507407586
4.71E9                   -0.7834349444002137      0.20588825687962178
4.74E9                   -0.7589082910283603      0.2809436135985243
4.77E9                   -0.7272157346038051      0.35313380650526005
4.8E9                    -0.6886879408762772      0.42177772484202625
4.83E9                   -0.6437201637832343      0.48623213454212727
4.86E9                   -0.5927679893411811      0.5458978981379681
4.89E9                   -0.536342396389817       0.6002257681850585
4.92E9                   -0.47500415126947265     0.6487216238298018
4.95E9                   -0.40935760686417355     0.6909510108623153
4.98E9                   -0.3400440316434562      0.7265428645245224
5.01E9                   -0.26773463740562625     0.755192338807461
5.04E9                   -0.19312349465617196     0.7766627279767315
5.07E9                   -0.11692051491895779     0.7907865339787272
5.1E9                    -0.039844637746671734    0.7974657922338059
5.13E9                   0.03738270784143687      0.7966718010012229
5.16E9                   0.11404387571755681      0.7884443913749826
5.19E9                   0.18943107868590517      0.7728908225129381
5.22E9                   0.2628523556758644       0.7501843055106788
5.25E9                   0.33363747808146216      0.7205620836289536
5.28E9                   0.4011437608382842       0.6843229650047666
5.31E9                   0.46476165847354456      0.641824236920113
5.34E9                   0.5239199832536056       0.5934779748686412
5.37E9                   0.5780906056016019       0.539746853299352
5.4E9                    0.6267925745880384       0.4811396220303915
5.43E9                   0.6695956905314745       0.4182064083826491
5.46E9                   0.7061236310890898       0.3515339469830783
5.49E9                   0.7360567526114536       0.28174075588774733
5.52E9                   0.7591346594179115       0.20947220207681694
5.55E9                   0.7751585711852713       0.1353953542548826
5.58E9                   0.7839934443801223       0.06019351469251717
5.61E9                   0.7855697362014379       -0.015439647444496175
5.64E9                   0.7798846529083179       -0.09080637872371206
5.67E9                   0.7670027098405949       -0.1652114778485455
5.7E9                    0.7470554573311337       -0.23796913991439783
5.73E9                   0.7202402978085968       -0.30840979765814525
5.76E9                   0.6868184217483017       -0.3758867299122412
5.79E9                   0.6471119902968866       -0.4397822514643302
5.82E9                   0.6015007477360084       -0.4995133944579885
5.85E9                   0.5504182313409695       -0.5545370979426959
5.88E9                   0.49434767084491665      -0.6043549891109432
5.91E9                   0.43381757787016134      -0.6485178402236806
5.94E9                   0.36939696366380254      -0.6866297304436241
5.97E9                   0.3016901133555514       -0.7183518679709762
6.0E9                    0.23133087904630703      -0.7434059697097077
