% Model:              three_layers reality at 0.1mm.mph
% Version:            COMSOL 5.6.0.280
% Date:               Mar 7 2022, 15:58
% Table:              表格 1 - 全局计算 1
% freq (Hz)              real(emw.S11) (1)        imag(emw.S11) (1)
300000000                0.4564677854859433       -0.7355071248184717
330000000                0.3819968275755297       -0.7737086629000478
360000000                0.30455232209144845      -0.8045955721044202
390000000                0.2248183888812701       -0.8279312604841356
420000000                0.14350430580098214      -0.8435456536191968
450000000                0.061336147250638545     -0.8513372611744625
480000000                -0.02095115239964436     -0.851274425724768
510000000                -0.10262144241956435     -0.8433957896619728
540000000                -0.18294475538351165     -0.8278100096570065
570000000                -0.26120446782507234     -0.8046947464978397
600000000                -0.33670420146894503     -0.7742949588983108
630000000                -0.4087744315408201      -0.7369205320940576
660000000                -0.4767787602916954      -0.6929432755262372
690000000                -0.5401198113740957      -0.6427933278232214
720000000                -0.5982447003508278      -0.5869550113705065
750000000                -0.6506500381633389      -0.5259621826777735
780000000                -0.6968864267544123      -0.46039312913282626
810000000                -0.7365624106896927      -0.39086506573332674
840000000                -0.7693478526228091      -0.3180282891370949
870000000                -0.7949767062383786      -0.24256004841345513
900000000                -0.8132491654459587      -0.16515819470100845
930000000                -0.8240331750610204      -0.08653467278804924
960000000                -0.8272652940403422      -0.007408919130935453
990000000                -0.8229509088699084      0.07149876939200327
1020000000               -0.8111638008744175      0.14947383192547145
1050000000               -0.7920450774959784      0.22581394213207873
1080000000               -0.7658014836901187      0.29983534754264785
1110000000               -0.7327031153896821      0.370878990774409
1140000000               -0.69308056261602        0.4383163562679624
1170000000               -0.647321514996283       0.501554989930489
1200000000               -0.5958668672208794      0.5600436427453821
1230000000               -0.5392063663726251      0.6132769937800986
1260000000               -0.47787384687802537     0.6607999127014247
1290000000               -0.4124421021530609      0.7022112269316222
1320000000               -0.343517444755919       0.7371669638947864
1350000000               -0.2717340091471682      0.7653830441309677
1380000000               -0.19774785262645944     0.7866374068294353
1410000000               -0.1222309112154326      0.8007715548316684
1440000000               -0.04586486755833903     0.8076915119430427
1470000000               0.03066501203873422      0.8073681909196413
1500000000               0.10667601511357105      0.7998371760935884
1530000000               0.1814940397877285       0.7851979298886573
1560000000               0.25445951728967947      0.7636124376883593
1590000000               0.32493314878746493      0.735303310396959
1620000000               0.3923014076988837       0.7005513687050615
1650000000               0.4559817616988182       0.6596927373493194
1680000000               0.515427571866508        0.613115481697753
1710000000               0.5701326302385378       0.5612558225779055
1740000000               0.6196353009861184       0.5045939685433194
1770000000               0.6635222348735774       0.4436496075674405
1800000000               0.7014316311529005       0.3789771026656423
1830000000               0.7330560261884124       0.31116043779614844
1860000000               0.7581445933188413       0.24080796186670492
1890000000               0.7765049442119563       0.1685469794481291
1920000000               0.7880044281625012       0.09501823671095863
1950000000               0.7925709324636426       0.020870349926352855
1980000000               0.7901931941785705       -0.05324577914495269
2010000000               0.7809206410592872       -0.12668252205383077
2040000000               0.7648627863156001       -0.19880102713692793
2070000000               0.7421882065535268       -0.2689766529712831
2100000000               0.7131231306868053       -0.33660433911833404
2130000000               0.6779496529027572       -0.40110395087696893
2.16E9                   0.6370035430902021       -0.46192566743101343
2.19E9                   0.5906715491141243       -0.5185555021384601
2.22E9                   0.5393879574553021       -0.5705210136274269
2.25E9                   0.4836300238414591       -0.6173971220507517
2.28E9                   0.4239117986578661       -0.6588116184274664
2.31E9                   0.3607760562209567       -0.6944494586443312
2.34E9                   0.29478472567410385      -0.7240545173658225
2.37E9                   0.22650937503841445      -0.7474276930625375
2.4E9                    0.15652422073989475      -0.7644215941343371
2.43E9                   0.08540365395767627      -0.7749340912561924
2.46E9                   0.013724002576447526     -0.7789041743676091
2.49E9                   -0.057933336778128286    -0.776312371952975
2.52E9                   -0.1289809299117277      -0.7671851562031001
2.55E9                   -0.19882831671271042     -0.751600620261637
2.58E9                   -0.2668884444087826      -0.7296927029776206
2.61E9                   -0.33258570836751344     -0.7016526744472891
2.64E9                   -0.39536392439950135     -0.6677280203616964
2.67E9                   -0.45469332274828755     -0.6282195256861249
2.7E9                    -0.510076337469949       -0.5834773645961822
2.73E9                   -0.5610523233671788      -0.5338967397992075
2.76E9                   -0.6072014293919384      -0.4799133496536963
2.79E9                   -0.6481478260558338      -0.42199878886767683
2.82E9                   -0.683562417825425       -0.3606559035145684
2.85E9                   -0.7131651123368572      -0.2964140914375604
2.88E9                   -0.7367266776495868      -0.2298245371963733
2.91E9                   -0.7540701950996062      -0.1614553794041086
2.94E9                   -0.7650721036539785      -0.09188681924239278
2.97E9                   -0.7696628274859162      -0.02170618892019944
3.0E9                    -0.7678269788246359      0.04849699340114278
3.03E9                   -0.7596031309783546      0.11813595021418877
3.06E9                   -0.7450831606332964      0.18663151705453146
3.09E9                   -0.7244111634987265      0.2534169232146037
3.12E9                   -0.6977819525196733      0.317942443085573
3.15E9                   -0.6654391527754164      0.3796798817979312
3.18E9                   -0.6276729113144907      0.43812686159772274
3.21E9                   -0.584817242980265       0.49281087901371495
3.24E9                   -0.5372470343840802      0.5432931069487864
3.27E9                   -0.48537472745643956     0.5891719192138966
3.3E9                    -0.4296467017490856      0.6300861169145483
3.33E9                   -0.37053937183581437     0.6657178354884343
3.36E9                   -0.3085550139525854      0.6957951078107508
3.39E9                   -0.24421733615572505     0.7200940526439382
3.42E9                   -0.17806681011637393     0.7384406499455635
3.45E9                   -0.11065579172128502     0.7507120566958891
3.48E9                   -0.04254347223273119     0.7568374117008253
3.51E9                   0.025709278797058668     0.7567980781941833
3.54E9                   0.09354509550162185      0.750627282025279
3.57E9                   0.1604152191012391       0.738409122647335
3.6E9                    0.2257844062674833       0.7202769631957626
3.63E9                   0.2891355248875101       0.6964112407664867
3.66E9                   0.34997373274730176      0.6670367720617546
3.69E9                   0.4078301590067174       0.6324196563932802
3.72E9                   0.4622650387912366       0.5928638943970992
3.75E9                   0.5128702823406863       0.548707848179329
3.78E9                   0.5592714911300182       0.5003206708757475
3.81E9                   0.6011294679584126       0.4480988318569081
3.84E9                   0.6381413101076995       0.39246285241580536
3.87E9                   0.6700412208730143       0.33385433501598794
3.9E9                    0.6966012108214937       0.2727333091618817
3.93E9                   0.7176318650021181       0.209575833783659
3.96E9                   0.7329833105536786       0.14487171080531433
3.99E9                   0.7425464325085511       0.07912210739641959
4.02E9                   0.7462542762383834       0.012836879847676308
4.05E9                   0.7440834770118127       -0.05346855447342519
4.08E9                   0.7360555010011233       -0.11927685538270064
4.11E9                   0.7222374818746164       -0.1840728598317159
4.14E9                   0.7027424870879536       -0.2473480077200678
4.17E9                   0.6777291278678295       -0.30860490975737803
4.2E9                    0.6474005114708249       -0.3673618706014341
4.23E9                   0.6120026020505623       -0.42315721439282306
4.26E9                   0.5718220942785243       -0.47555331485098523
4.29E9                   0.5271839089006093       -0.5241402897022894
4.32E9                   0.4784483981820339       -0.5685393635388646
4.35E9                   0.42600831439210385      -0.6084059250456008
4.38E9                   0.37028556053110595      -0.6434323031873448
4.41E9                   0.3117277205461855       -0.6733502690539953
4.44E9                   0.2508043609032777       -0.697933246177949
4.47E9                   0.18800310501424972      -0.7169981918156664
4.5E9                    0.1238255008593626       -0.7304071009971905
4.53E9                   0.058782723861326505     -0.7380680857527283
4.56E9                   -0.00660882364254416     -0.7399359928123692
4.59E9                   -0.07183194164949817     -0.7360125418576428
4.62E9                   -0.13637301131727517     -0.7263459902401088
4.65E9                   -0.19972625065039262     -0.711030355048248
4.68E9                   -0.2613977925701722      -0.6902042438487778
4.71E9                   -0.3209095581376413      -0.6640493546614599
4.74E9                   -0.37780292671822074     -0.632788698616046
4.77E9                   -0.43164222505258243     -0.5966845755081096
4.8E9                    -0.4820180591187979      -0.5560363007529348
4.83E9                   -0.5285504934752726      -0.5111776551190774
4.86E9                   -0.5708920490512794      -0.4624740184940242
4.89E9                   -0.6087304548059564      -0.4103191618699377
4.92E9                   -0.641791065203913       -0.35513170427307694
4.95E9                   -0.6698388523300407      -0.29735128366703023
4.98E9                   -0.6926799004009399      -0.23743453101647538
5.01E9                   -0.710162367359852       -0.17585096460146943
5.04E9                   -0.7221769259512499      -0.11307893042238851
5.07E9                   -0.7286567458483862      -0.04960170018236753
5.1E9                    -0.7295771177208352      0.014096199527183188
5.13E9                   -0.7249548369222206      0.07753240901847114
5.16E9                   -0.7148474486231527      0.14022995055411974
5.19E9                   -0.6993524067716689      0.2017203223041836
5.22E9                   -0.6786061303798221      0.2615465629736284
5.25E9                   -0.652782880432297       0.3192663392254601
5.28E9                   -0.6220933591322396      0.3744550366623751
5.31E9                   -0.586782964380104       0.42670876507493116
5.34E9                   -0.5471297031316059      0.4756471557191467
5.37E9                   -0.503441842792135       0.5209158497271386
5.4E9                    -0.4560554236901593      0.5621886408976969
5.43E9                   -0.4053317496230195      0.5991693117764151
5.46E9                   -0.3516549246932222      0.6315932560322585
5.49E9                   -0.29542943682183215     0.6592289946256944
5.52E9                   -0.23707772747608882     0.6818796686566655
5.55E9                   -0.17703765055617815     0.6993845413258534
5.58E9                   -0.11575971708064242     0.7116204819103076
5.61E9                   -0.0537040442440226      0.7185033499888862
5.64E9                   0.008663027630261767     0.7199891585312852
5.67E9                   0.07087262567260436      0.716074878315982
5.7E9                    0.13245725134483202      0.7067987614404458
5.73E9                   0.19295475728993472      0.6922401124278945
5.76E9                   0.251912226588383        0.6725185138221331
5.79E9                   0.30888961527266834      0.6477925943583976
5.82E9                   0.3634630919235187       0.6182584772746275
5.85E9                   0.41522809511459563      0.5841480398654292
5.88E9                   0.4638021892160511       0.545727057902129
5.91E9                   0.5088278069533294       0.5032932321040778
5.94E9                   0.5499749277897922       0.4571740364801312
5.97E9                   0.5869436817766852       0.4077243107118107
6.0E9                    0.6194668171611003       0.35532353774382924
