% Model:              three_layers reality at 0.1mm.mph
% Version:            COMSOL 5.6.0.280
% Date:               Mar 7 2022, 16:01
% Table:              表格 1 - 全局计算 1
% freq (Hz)              real(emw.S11) (1)        imag(emw.S11) (1)
300000000                0.4926786994881763       -0.7889226906274027
330000000                0.4122237628738127       -0.8307591765729319
360000000                0.3285003238258451       -0.8645859656617936
390000000                0.242259586862847        -0.890160967688485
420000000                0.15427749176597383      -0.9073089286490069
450000000                0.06534714803119233      -0.9159254217481874
480000000                -0.023728944085139682    -0.9159794997485827
510000000                -0.11214676279721339     -0.9075151691447231
540000000                -0.19910862093869763     -0.8906518022237475
570000000                -0.2838309196818333      -0.8655835761173821
600000000                -0.36555171860816443     -0.8325780113277474
630000000                -0.4435380469113466      -0.7919736733173256
660000000                -0.5170928848090048      -0.7441770965685315
690000000                -0.5855617500631487      -0.689658989046715
720000000                -0.6483388280124486      -0.6289497760535244
750000000                -0.7048725890662715      -0.5626345443469939
780000000                -0.7546708432623469      -0.49134744957605286
810000000                -0.7973051868014036      -0.4157656532454208
840000000                -0.8324148023764439      -0.33660285752549945
870000000                -0.859709581256769       -0.25460250906783366
900000000                -0.8789725426037583      -0.1705307441021809
930000000                -0.8900615322507236      -0.0851691491844338
960000000                -0.89291019084189        6.925881248076513E-4
990000000                -0.8875281884873467      0.08626406378425065
1020000000               -0.8740007305643411      0.17076150337214097
1050000000               -0.8524873464628087      0.2534149971940639
1080000000               -0.8232199802222642      0.3334755542245131
1110000000               -0.7865004086733695      0.41022190740249287
1140000000               -0.7426970191742003      0.48296700633945433
1170000000               -0.6922409849182598      0.5510641375183056
1200000000               -0.6356218813511577      0.6139126166853158
1230000000               -0.5733827919979043      0.6709630033829268
1260000000               -0.5061149565365994      0.7217217927353761
1290000000               -0.4344520174225845      0.7657555459435779
1320000000               -0.3590639245820425      0.8026944266713696
1350000000               -0.28065055993750576     0.8322351171210136
1380000000               -0.19993514532017526     0.8541430939217083
1410000000               -0.11765749831331114     0.8682542505282487
1440000000               -0.03456720070170949     0.8744758594086047
1470000000               0.04858325559407         0.8727868735459574
1500000000               0.13104528181616432      0.8632375732514973
1530000000               0.21208090249321077      0.8459485702335494
1560000000               0.29096930266944127      0.8211091867249447
1590000000               0.3670131545940864       0.7889752329998211
1620000000               0.43954466975842216      0.7498662117622472
1650000000               0.5079313254382797       0.7041619826985102
1680000000               0.5715812190503042       0.6522989248560004
1710000000               0.6299480077269405       0.5947656385781537
1740000000               0.682535395487453        0.5320982321095908
1770000000               0.7289011351310084       0.4648752412105191
1800000000               0.7686605174590628       0.39371223260950633
1830000000               0.8014893260446669       0.3192561442954641
1860000000               0.8271262419176559       0.24217941701443102
1890000000               0.8453746889222548       0.16317397238135
1920000000               0.8561041177439002       0.08294509262398529
1950000000               0.8592507341840012       0.0022052559806877443
1980000000               0.8548176857883057       -0.07833202172805988
2010000000               0.8428747298305623       -0.15795829477590714
2040000000               0.8235574144557749       -0.2359762103478453
2070000000               0.7970658115330033       -0.31170542953255115
2100000000               0.7636628403569881       -0.3844884552362463
2130000000               0.7236722075945927       -0.4536964119163666
2.16E9                   0.6774759472546418       -0.5187348641927844
2.19E9                   0.6255114559964409       -0.5790497939920712
2.22E9                   0.5682677692330046       -0.634133836980568
2.25E9                   0.5062806287070609       -0.6835327338722562
2.28E9                   0.4401257532647206       -0.7268515903721068
2.31E9                   0.37040987427949673      -0.7637599515027625
2.34E9                   0.29775983204200646      -0.7939941383344856
2.37E9                   0.22281137131976828      -0.8173554028004175
2.4E9                    0.14620048479801148      -0.8337038735192348
2.43E9                   0.06855985035934752      -0.8429506681218331
2.46E9                   -0.00947954796332109     -0.8450521357491092
2.49E9                   -0.08728461576382679     -0.8400091546741035
2.52E9                   -0.16421826214110524     -0.8278712559869688
2.55E9                   -0.23964183049467824     -0.8087427010453576
2.58E9                   -0.312921536075908       -0.7827873450926991
2.61E9                   -0.3834369984389756      -0.7502306100245855
2.64E9                   -0.4505899455053639      -0.7113585301376434
2.67E9                   -0.5138119615399566      -0.6665146806800586
2.7E9                    -0.5725709304819538      -0.6160958869058374
2.73E9                   -0.6263762663244997      -0.5605473526240149
2.76E9                   -0.6747831642943029      -0.5003575563983036
2.79E9                   -0.7173960915966705      -0.43605306250264864
2.82E9                   -0.7538716709685359      -0.36819328829052206
2.85E9                   -0.7839210465401187      -0.297365228242542
2.88E9                   -0.8073117756358263      -0.22417812721439662
2.91E9                   -0.8238692621160255      -0.14925810200701298
2.94E9                   -0.8334777323289995      -0.07324272079332454
2.97E9                   -0.8360807487482099      0.0032244398246369602
3.0E9                    -0.8316812557275919      0.0794992321245762
3.03E9                   -0.8203411542058174      0.1549423347663369
3.06E9                   -0.8021804064021727      0.22892457243346864
3.09E9                   -0.777375676679469       0.3008321173220167
3.12E9                   -0.7461585202872971      0.3700715320387149
3.15E9                   -0.7088131370208686      0.43607461495128774
3.18E9                   -0.6656737113853053      0.4983030120367882
3.21E9                   -0.6171213639271831      0.5562525636409523
3.24E9                   -0.5635807395798608      0.6094573591488512
3.27E9                   -0.5055162578406136      0.6574934767880577
3.3E9                    -0.44342804676869974     0.6999823881646573
3.33E9                   -0.37784757905562094     0.7365940067810023
3.36E9                   -0.30933302532488577     0.7670493560253886
3.39E9                   -0.2384643390024085      0.7911228252458635
3.42E9                   -0.16583809072960812     0.8086439731984121
3.45E9                   -0.0920620795513269      0.8194988286624949
3.48E9                   -0.017749764120499025    0.8236306309157027
3.51E9                   0.056485420873950254     0.8210399517984399
3.54E9                   0.1300357724849306       0.8117841497997488
3.57E9                   0.20230493687096535      0.7959761272834243
3.6E9                    0.27271330519736364      0.7737823942017902
3.63E9                   0.3407030540447682       0.7454204812021347
3.66E9                   0.4057427092041483       0.7111557845493689
3.69E9                   0.4673311383854216       0.6712979572752906
3.72E9                   0.5250009124635145       0.6261969812691627
3.75E9                   0.5783210104259169       0.5762390649804078
3.78E9                   0.6268988788019176       0.5218425153362783
3.81E9                   0.6703818962430234       0.4634537318558756
3.84E9                   0.7084583426117732       0.401543459770663
3.87E9                   0.7408580264917071       0.33660340463366184
3.9E9                    0.7673527692205795       0.26914324409970597
3.93E9                   0.7877569535825227       0.19968797758593793
3.96E9                   0.8019283022454445       0.12877545467755322
3.99E9                   0.8097689551931642       0.05695385299697439
4.02E9                   0.8112267908964352       -0.015221135357716718
4.05E9                   0.806296821146291        -0.08718959436278496
4.08E9                   0.795022420038336        -0.1583912318886455
4.11E9                   0.7774961412799183       -0.2282697437439202
4.14E9                   0.7538599298823222       -0.296277550700429
4.17E9                   0.7243046223952953       -0.36188070658382654
4.2E9                    0.6890687257827498       -0.42456376745704927
4.23E9                   0.6484365437190036       -0.4838344470969868
4.26E9                   0.6027357649128486       -0.5392279444872069
4.29E9                   0.5523346366509289       -0.5903108944678922
4.32E9                   0.4976388248134807       -0.6366849442175166
4.35E9                   0.43908802302693606      -0.6779899850103754
4.38E9                   0.3771523348082655       -0.7139070690050482
4.41E9                   0.3123284264640628       -0.7441610217370759
4.44E9                   0.24513544095490652      -0.7685227342253148
4.47E9                   0.17611067258540133      -0.7868110950935867
4.5E9                    0.10580502295796457      -0.7988945100636702
4.53E9                   0.034778283007080725     -0.8046919558033411
4.56E9                   -0.03640569189559475     -0.8041735264684938
4.59E9                   -0.10718383107228427     -0.7973604518921213
4.62E9                   -0.17699863325089302     -0.7843245930916865
4.65E9                   -0.24530280465141072     -0.7651874492204402
4.68E9                   -0.3115636881248158      -0.7401187339280679
4.71E9                   -0.3752674517194236      -0.7093345906196301
4.74E9                   -0.43592303839239266     -0.6730955091334092
4.77E9                   -0.4930659026102185      -0.6317039807683098
4.8E9                    -0.5462615632492267      -0.585501892586851
4.83E9                   -0.5951089818544183      -0.5348676301478391
4.86E9                   -0.6392437376174922      -0.48021284474643633
4.89E9                   -0.6783409297980246      -0.4219788541144973
4.92E9                   -0.7121177104619625      -0.3606326811108338
4.95E9                   -0.7403353451211742      -0.2966627825002263
4.98E9                   -0.7628007187287276      -0.23057456580949803
5.01E9                   -0.7793672451016793      -0.16288582515828354
5.04E9                   -0.7899351915091443      -0.09412223846456842
5.07E9                   -0.7944514863159343      -0.02481305390018126
5.1E9                    -0.7929091234841219      0.04451294807011303
5.13E9                   -0.785346298806879       0.11333119347200574
5.16E9                   -0.771845397025455       0.18112479962551578
5.19E9                   -0.7525318945930497      0.24738790238956168
5.22E9                   -0.727573165040339       0.31162893196649677
5.25E9                   -0.6971771041376417      0.3733739011210107
5.28E9                   -0.6615904647509319      0.43216968995510546
5.31E9                   -0.62109682362804        0.4875872312325827
5.34E9                   -0.5760141807998965      0.5392244604829459
5.37E9                   -0.5266922781496617      0.5867089164160989
5.4E9                    -0.4735097753215072      0.6296999481731398
5.43E9                   -0.4168714168976279      0.6678905715095136
5.46E9                   -0.35720527135576907     0.70100907892689
5.49E9                   -0.29496004602063647     0.7288205275086188
5.52E9                   -0.23060241239175863     0.751128202513192
5.55E9                   -0.1646142329716307      0.7677750989966485
5.58E9                   -0.09748957131105662     0.7786453966245721
5.61E9                   -0.029731389768027763    0.7836658402420609
5.64E9                   0.03815211127278158      0.7828068923948668
5.67E9                   0.10565149067219828      0.7760835036208967
5.7E9                    0.1722603026362517       0.7635553612836428
5.73E9                   0.23747941023889751      0.7453265330724554
5.76E9                   0.30082118852529605      0.7215445089331484
5.79E9                   0.36181345882854077      0.6923987376658051
5.82E9                   0.42000307686798966      0.6581188124607076
5.85E9                   0.47495919542115317      0.6189724551208393
5.88E9                   0.5262762919178402       0.5752633856238124
5.91E9                   0.5735770626336273       0.5273290775678403
5.94E9                   0.6165152427948691       0.475538333881254
5.97E9                   0.6547783454494311       0.4202885951663291
6.0E9                    0.6880902534986206       0.3620029125836314
