% Model:              three_layers reality at 0.1mm.mph
% Version:            COMSOL 5.6.0.280
% Date:               Mar 1 2022, 21:51
% Table:              表格 1 - 全局计算 1
% freq (Hz)              real(emw.S11) (1)        imag(emw.S11) (1)
300000000                0.4513277996963879       -0.8656972823463622
330000000                0.3547991707173472       -0.9084983987772278
360000000                0.25437353002330826      -0.9405685871573222
390000000                0.15123515641811577      -0.9615703566457855
420000000                0.046597075133158763     -0.9712959326565875
450000000                -0.05831349716757455     -0.9696699715310774
480000000                -0.1622699224948237      -0.9567504701811368
510000000                -0.26406090067854154     -0.9327279095674558
540000000                -0.3625050072616971      -0.8979226807866374
570000000                -0.45646481309715237     -0.852780855943287
600000000                -0.5448603996159415      -0.7978683814481004
630000000                -0.6266820959470447      -0.7338637875833756
660000000                -0.7010022772048716      -0.6615495242176149
690000000                -0.7669860772877932      -0.5818020484961599
720000000                -0.8239008863942838      -0.4955808041367242
750000000                -0.8711245204072091      -0.40391624525058667
780000000                -0.9081519688362136      -0.30789706789247345
810000000                -0.9346006477699849      -0.20865682149359382
840000000                -0.95021410546833        -0.10736007811492387
870000000                -0.9548641494912661      -0.005188341460692952
900000000                -0.9485513860338328      0.09667412183328826
930000000                -0.9314041834559055      0.19705434738925423
960000000                -0.9036760929616758      0.29480445794256893
990000000                -0.8657417794245177      0.38881499750633053
1020000000               -0.8180915342495951      0.4780276535932977
1050000000               -0.7613244595851745      0.5614472172811314
1080000000               -0.6961404289721044      0.6381526438075852
1110000000               -0.6233309434031616      0.7073070909811571
1140000000               -0.5437690135083807      0.7681668286689378
1170000000               -0.4583982082575789      0.8200889294961652
1200000000               -0.36822101801487017     0.8625376685452338
1230000000               -0.2742866847574869      0.895089578062162
1260000000               -0.17767865541629657     0.9174371212252043
1290000000               -0.07950181470274612     0.9293909672858954
1320000000               0.019130347327546815     0.9308808679042024
1350000000               0.11710848120728007      0.9219551515903529
1380000000               0.21333989086651892      0.9027788692818943
1410000000               0.30676067339920565      0.8736306391963868
1440000000               0.39634735421968514      0.8348982530223831
1470000000               0.4811278954455176       0.7870731181502235
1500000000               0.5601919659995728       0.7307436218582005
1530000000               0.6327003733177691       0.666587513186474
1560000000               0.6978935686589254       0.595363406569155
1590000000               0.7550991507113043       0.5179015181180807
1620000000               0.8037383051212963       0.4350937508603034
1650000000               0.8433311307564495       0.34788324916010915
1680000000               0.8735008167368783       0.25725354517045534
1710000000               0.8939766475004565       0.1642174212286149
1740000000               0.904595826129259        0.0698056121563198
1770000000               0.9053041190267419       -0.02494453006661593
1800000000               0.8961553375204616       -0.11900028942224466
1830000000               0.8773096841234911       -0.2113446407451095
1860000000               0.849031002948286        -0.30098699567958465
1890000000               0.8116829850295026       -0.386973535562009
1920000000               0.7657243899559916       -0.4683970354179421
1950000000               0.7117033549534864       -0.5444060934936412
1980000000               0.6502508708826945       -0.6142136934396869
2010000000               0.5820735104574544       -0.6771050419997918
2040000000               0.5079454954606215       -0.7324446442960402
2070000000               0.42870018362073203      -0.7796826014464426
2100000000               0.3452210367876502       -0.8183601394575046
2130000000               0.25843209315794663      -0.8481143977137555
2.16E9                   0.16928790038592645      -0.868682505198194
2.19E9                   0.07876277411037212      -0.879904923998571
2.22E9                   -0.012160847236753015    -0.8817278989582387
2.25E9                   -0.10250519616063213     -0.8742045779544979
2.28E9                   -0.19131114675108274     -0.8574939813120915
2.31E9                   -0.27765275956319435     -0.8318567001383068
2.34E9                   -0.36065075995642015     -0.7976464457688826
2.37E9                   -0.4394824112747352      -0.755297847402597
2.4E9                    -0.513385607858794       -0.7053130240440284
2.43E9                   -0.5816573739487579      -0.6482509692575943
2.46E9                   -0.6436501824519063      -0.5847227809919133
2.49E9                   -0.6987708648081711      -0.5153922594607475
2.52E9                   -0.746484891995157       -0.4409781013749924
2.55E9                   -0.7863252116784585      -0.36225349594709466
2.58E9                   -0.8179025848607915      -0.28004112208824544
2.61E9                   -0.8409145235758673      -0.195204060670535
2.64E9                   -0.8551513846676129      -0.10863434512337483
2.67E9                   -0.8604995106247388      -0.021240785431081596
2.7E9                    -0.8569419595149914      0.06606292589336217
2.73E9                   -0.8445574630216766      0.15236939597677424
2.76E9                   -0.8235181031699192      0.23678791114189437
2.79E9                   -0.7940860146874607      0.3184540581416319
2.82E9                   -0.7566092837873946      0.3965386531314168
2.85E9                   -0.7115171353999369      0.47025602149080803
2.88E9                   -0.65931446440709        0.5388716403358021
2.91E9                   -0.6005757550647876      0.6017091301738102
2.94E9                   -0.5359384342017018      0.6581565659023789
2.97E9                   -0.46609571067429895     0.7076720692681033
3.0E9                    -0.3917889620105955      0.749788643102966
3.03E9                   -0.3137997373811007      0.7841182102659838
3.06E9                   -0.23294145295682336     0.8103548260247472
3.09E9                   -0.15005086101215143     0.8282770405345907
3.12E9                   -0.06597937735615532     0.8377493974678525
3.15E9                   0.0184156473852374       0.8387230649114849
3.18E9                   0.10227962854854554      0.8312356046043107
3.21E9                   0.18476933991375744      0.8154098944708633
3.24E9                   0.26506132297924284      0.7914522262888908
3.27E9                   0.342360044154743        0.7596496044882748
3.3E9                    0.41590573625865945      0.7203662733413924
3.33E9                   0.48498186355474254      0.6740394987717228
3.36E9                   0.5489221487080087       0.6211746290563518
3.39E9                   0.6071170948809542       0.5623394579422544
3.42E9                   0.6590199270342829       0.4981579166331154
3.45E9                   0.7041518649783843       0.42930313025791755
3.48E9                   0.7421066298383612       0.3564898917233719
3.51E9                   0.7725540796016901       0.28046663192418136
3.54E9                   0.7952428733880883       0.2020069984618215
3.57E9                   0.8100020824023813       0.1219011905275558
3.6E9                    0.8167416998797112       0.04094722824438063
3.63E9                   0.8154520500128492       -0.04005764776907379
3.66E9                   0.8062021494290001       -0.12032525228121341
3.69E9                   0.7891371246933702       -0.19908423311305024
3.72E9                   0.7644748282596642       -0.2755872116796969
3.75E9                   0.7325018217574191       -0.34911718906844497
3.78E9                   0.6935689127128278       -0.4189931652868107
3.81E9                   0.6480864410579653       -0.48457497018925716
3.84E9                   0.5965195097576732       -0.5452673668617728
3.87E9                   0.5393833260901904       -0.6005235601218417
3.9E9                    0.47723875347756         -0.6498483086188346
3.93E9                   0.4106880687801983       -0.6928008713784404
3.96E9                   0.3403707990126414       -0.7289979929074524
3.99E9                   0.26695941320568933      -0.7581170387440015
4.02E9                   0.19115460724298838      -0.7798992566449252
4.05E9                   0.11367995909806794      -0.7941529992012047
4.08E9                   0.03527583727489603      -0.800756645270441
4.11E9                   -0.04330741825361759     -0.7996609273224374
4.14E9                   -0.12131689671987084     -0.7908904113183658
4.17E9                   -0.19800486800605877     -0.7745439650994751
4.2E9                    -0.27263662509295594     -0.75079415977941
4.23E9                   -0.3444981807373082      -0.7198856463282245
4.26E9                   -0.41290363983278716     -0.6821326152832383
4.29E9                   -0.477202139577863       -0.6379154726420108
4.32E9                   -0.5367843105452027      -0.587676853777689
4.35E9                   -0.5910882484449357      -0.5319170635057651
4.38E9                   -0.639604994373359       -0.47118899231502537
4.41E9                   -0.681883506672127       -0.4060925317905806
4.44E9                   -0.7175350824934332      -0.3372685043552246
4.47E9                   -0.7462371641378518      -0.2653921336228041
4.5E9                    -0.7677364530872952      -0.19116610559781294
4.53E9                   -0.781851256698944       -0.11531329982010959
4.56E9                   -0.7884730082775246      -0.03856929619694096
4.59E9                   -0.7875669280452434      0.03832521762835084
4.62E9                   -0.7791718266066129      0.11463200598939341
4.65E9                   -0.7633990885583558      0.18962268681283134
4.68E9                   -0.7404309044182684      0.26258587293796837
4.71E9                   -0.7105178352770772      0.33283398608288506
4.74E9                   -0.6739757898937931      0.39970971452282295
4.77E9                   -0.6311824686812494      0.46259211285256713
4.8E9                    -0.5825732928640599      0.5209023469797215
4.83E9                   -0.5286368066093979      0.5741090661781342
4.86E9                   -0.4699095308520853      0.6217333450097918
4.89E9                   -0.40697026702557326     0.663353097795215
4.92E9                   -0.3404338923435213      0.6986068443275996
4.95E9                   -0.27094474253524087     0.7271967082492266
4.98E9                   -0.1991697273740341      0.7488905603830505
5.01E9                   -0.12579135591896318     0.7635232723527968
5.04E9                   -0.051500853422007255    0.7709971105999105
5.07E9                   0.02300847352982558      0.7712813642958303
5.1E9                    0.09704752159821997      0.7644113476056583
5.13E9                   0.16993729679701045      0.7504869317958617
5.16E9                   0.2410144877536954       0.7296707356160417
5.19E9                   0.3096367989738454       0.7021860360931896
5.22E9                   0.3751881345082613       0.6683143781263832
5.25E9                   0.437083665674853        0.6283927964464525
5.28E9                   0.49477472849586823      0.5828105516381245
5.31E9                   0.5477534206889191       0.5320053334389866
5.34E9                   0.5955567451430375       0.4764589757974917
5.37E9                   0.637770190030794        0.4166928132757992
5.4E9                    0.6740307231716273       0.35326284549367304
5.43E9                   0.7040292673802444       0.2867548508113052
5.46E9                   0.7275127760949339       0.21777951870267154
5.49E9                   0.7442860281791757       0.14696758591716608
5.52E9                   0.7542132148041344       0.07496489628600884
5.55E9                   0.7572193207071352       0.0024272759256583837
5.58E9                   0.7532912295487307       -0.06998487258456522
5.61E9                   0.7424784258035203       -0.14161230813297915
5.64E9                   0.7248931350694431       -0.2118030039135039
5.67E9                   0.7007097490001968       -0.2799184186516818
5.7E9                    0.6701634255690337       -0.3453398160029791
5.73E9                   0.6335478374942014       -0.4074744160178841
5.76E9                   0.591212143044924        -0.465761167359759
5.79E9                   0.5435573386686787       -0.5196759929064193
5.82E9                   0.4910321839189587       -0.5687364645893237
5.85E9                   0.43412885047301303      -0.6125059606905839
5.88E9                   0.37337836055011897      -0.6505974051874001
5.91E9                   0.30934579267532797      -0.6826766683854747
5.94E9                   0.24262518617140183      -0.708465641871892
5.97E9                   0.17383408269827552      -0.7277449281824947
6.0E9                    0.10360768861073187      -0.7403560376912942
