% Model:              three_layers reality at 0.1mm.mph
% Version:            COMSOL 5.6.0.280
% Date:               Mar 1 2022, 21:44
% Table:              表格 1 - 全局计算 1
% freq (Hz)              real(emw.S11) (1)        imag(emw.S11) (1)
300000000                0.4371823386912116       -0.8606781639714332
330000000                0.34080942361239047      -0.9017405675796116
360000000                0.2407736358814125       -0.9320946220617661
390000000                0.1382473812141308       -0.9514273690729775
420000000                0.03443188089643439      -0.9595538208006347
450000000                -0.06945795665201847     -0.9564200847505332
480000000                -0.17220871978110122     -0.9421044221859074
510000000                -0.2726235324330998      -0.916816383013488
540000000                -0.3695367613976299      -0.8808941295084992
570000000                -0.4618282142384672      -0.8348000511177892
600000000                -0.5484366565946488      -0.7791147743575296
630000000                -0.6283724877828423      -0.7145296792647556
660000000                -0.7007294226923588      -0.6418380456965216
690000000                -0.7646950428672539      -0.561924964068664
720000000                -0.819560093412733       -0.47575615789382397
750000000                -0.8647264199935544      -0.38436587636230435
780000000                -0.8997134588513703      -0.2888440244817867
810000000                -0.9241632123465546      -0.1903227061741043
840000000                -0.9378436635396712      -0.08996236069671522
870000000                -0.9406506045610826      0.011062324385997328
900000000                -0.9326078750124159      0.11157654039378993
930000000                -0.9138660278535016      0.21041934376720747
960000000                -0.8846994609491786      0.3064573252631062
990000000                -0.8455020722245769      0.3985977932759028
1020000000               -0.7967815149020313      0.48580131213045163
1050000000               -0.7391521463391244      0.5670934476992466
1080000000               -0.6733267793038069      0.6415755861920377
1110000000               -0.6001073579062943      0.7084347069608063
1140000000               -0.5203746915631012      0.7669520065098558
1170000000               -0.4350773896052088      0.8165102879229068
1200000000               -0.345220145836802       0.8566000479447964
1230000000               -0.25185152691338203     0.8868242121030563
1260000000               -0.15605142077187342     0.9069014864723631
1290000000               -0.058918301445723034    0.9166683127582907
1320000000               0.03844353531550056      0.9160794308892598
1350000000               0.13493661506099883      0.9052070701420507
1380000000               0.22948266130624173      0.8842388057131532
1410000000               0.3210345681136687       0.8534741324980234
1440000000               0.4085878394852815       0.8133198214011292
1470000000               0.4911913762278246       0.764284135791036
1500000000               0.5679575018536142       0.706969996544149
1530000000               0.6380711307089574       0.6420671935203188
1560000000               0.7007979938248383       0.5703437492036448
1590000000               0.755491850679324        0.4926365467323063
1620000000               0.8016006282060588       0.409841339390149
1650000000               0.8386714414537487       0.32290226226337276
1680000000               0.8663544635499356       0.23280096887488522
1710000000               0.8844056257464019       0.14054551634333007
1740000000               0.8926881411517208       0.04715912222434485
1770000000               0.8911728584477534       -0.046331085646140205
1800000000               0.8799374641206509       -0.1389052079702398
1830000000               0.8591645636124565       -0.22956148725978026
1860000000               0.8291386831787144       -0.31732688698002787
1890000000               0.7902422450815803       -0.4012672346542046
1920000000               0.7429505787853938       -0.48049683564493173
1950000000               0.6878260399794709       -0.5541874742793795
1980000000               0.6255113167529551       -0.6215767315743144
2010000000               0.5567220071827675       -0.681975563792261
2040000000               0.4822385534249207       -0.7347751038060004
2070000000               0.4028976106339348       -0.7794526678082127
2100000000               0.31958291074763956      -0.815576970388931
2130000000               0.23321564500140007      -0.8428125655785623
2.16E9                   0.14474433044712748      -0.8609235257147877
2.19E9                   0.0551340475226823       -0.869776318100802
2.22E9                   -0.03464513507199225     -0.8693417040115747
2.25E9                   -0.12363071915963425     -0.8596952355224993
2.28E9                   -0.21088125760247128     -0.8410155976597098
2.31E9                   -0.29549009373349        -0.8135798339387499
2.34E9                   -0.3765977795979299      -0.777754813164137
2.37E9                   -0.4534009015328918      -0.7339855371762459
2.4E9                    -0.5251555753360072      -0.6827827835249135
2.43E9                   -0.5911761568799822      -0.6247137201238999
2.46E9                   -0.6508325391645626      -0.5603979071258419
2.49E9                   -0.7035502954147618      -0.4905077947222058
2.52E9                   -0.748815806638909       -0.4157700388551723
2.55E9                   -0.7861852195736806      -0.33696392486362037
2.58E9                   -0.815294267972157       -0.25491539204269886
2.61E9                   -0.8358663784962895      -0.17048741044772275
2.64E9                   -0.8477179141824186      -0.08456841355326133
2.67E9                   -0.8507606074338091      0.0019397183469000324
2.7E9                    -0.8450017624837646      0.08813325739250942
2.73E9                   -0.8305428396325614      0.17311747459833066
2.76E9                   -0.807576867792781       0.2560166894552378
2.79E9                   -0.7763849541039686      0.33598358218540986
2.82E9                   -0.7373320355073378      0.412207834537488
2.85E9                   -0.6908619494177354      0.48392413644385696
2.88E9                   -0.6374918717699395      0.5504195642704375
2.91E9                   -0.5778061640031578      0.6110403123412668
2.94E9                   -0.5124496743688706      0.6651977451841024
2.97E9                   -0.44212054694442426     0.7123737315731004
3.0E9                    -0.36756260035980404     0.7521252210943343
3.03E9                   -0.2895573464480182      0.7840880274263348
3.06E9                   -0.20891572530737657     0.8079797891343461
3.09E9                   -0.12646963821845744     0.8236020869186899
3.12E9                   -0.043063362399871255    0.8308417057851012
3.15E9                   0.040455067769570086     0.8296710404751443
3.18E9                   0.1232424302783402       0.8201476521809297
3.21E9                   0.20446875672203113      0.802412993070392
3.24E9                   0.28332557142039827      0.7766903217704153
3.27E9                   0.35903386039957486      0.7432818370512156
3.3E9                    0.43085170695447755      0.7025650585179196
3.33E9                   0.49808153323839516      0.6549884827147918
3.36E9                   0.5600768865302067       0.6010665420839798
3.39E9                   0.6162487044468105       0.5413738945833271
3.42E9                   0.6660709856505052       0.47653907562681425
3.45E9                   0.7090857832156534       0.4072375536170724
3.48E9                   0.7449074295937532       0.3341842471290757
3.51E9                   0.773225898860995        0.2581255862040632
3.54E9                   0.7938092182403793       0.17983123007816895
3.57E9                   0.806504860095997        0.10008558501105219
3.6E9                    0.8112400791308083       0.019679291357533005
3.63E9                   0.8080212040506645       -0.060599137980867274
3.66E9                   0.7969319416646539       -0.1399713502054717
3.69E9                   0.7781307955079356       -0.21767670044500087
3.72E9                   0.7518477344160491       -0.2929791926359789
3.75E9                   0.7183802681152027       -0.3651737303296412
3.78E9                   0.6780890999414209       -0.43359163586151434
3.81E9                   0.6313935331777029       -0.49760544272641216
3.84E9                   0.5787668020280888       -0.556633021810668
3.87E9                   0.5207314690338816       -0.6101411648031017
3.9E9                    0.4578549670980714       -0.6576488027178607
3.93E9                   0.3907452686130041       -0.698730059485361
3.96E9                   0.3200465582305716       -0.7330173086342744
3.99E9                   0.24643470474473583      -0.7602043120810241
4.02E9                   0.17061230350902648      -0.7800493954775511
4.05E9                   0.09330310630463182      -0.7923784929597119
4.08E9                   0.015245756983523151     -0.7970878137817018
4.11E9                   -0.06281312425949022     -0.7941458660379492
4.14E9                   -0.14012635417497563     -0.7835946171200056
4.17E9                   -0.21595387332465377     -0.7655496567829545
4.2E9                    -0.2895704636207877      -0.7401993282618157
4.23E9                   -0.3602732804341806      -0.7078028794246314
4.26E9                   -0.42738903957067054     -0.6686877415881148
4.29E9                   -0.4902807641536744      -0.6232460622465537
4.32E9                   -0.5483540504365984      -0.5719306046707504
4.35E9                   -0.6010628424879121      -0.51525009540819
4.38E9                   -0.6479147105520888      -0.4537640667341859
4.41E9                   -0.6884756134564639      -0.38807721825969793
4.44E9                   -0.7223741026712031      -0.31883331693346595
4.47E9                   -0.7493049059863326      -0.2467086665620909
4.5E9                    -0.7690318196541246      -0.17240520057043307
4.53E9                   -0.7813898417073037      -0.09664327800040572
4.56E9                   -0.7862864952580955      -0.020154286164857337
4.59E9                   -0.783702316211576       0.05632683066462816
4.62E9                   -0.7736905113395333      0.1320689918770017
4.65E9                   -0.7563758252372973      0.20635223405975955
4.68E9                   -0.7319526814375017      0.27847470308126054
4.71E9                   -0.7006826762670051      0.347759322736033
4.74E9                   -0.6628914983836461      0.41356011189129865
4.77E9                   -0.6189653233838656      0.4752681452337994
4.8E9                    -0.5693467007156445      0.5323171551689339
4.83E9                   -0.514529924510596       0.584188751699365
4.86E9                   -0.45505587447984264     0.6304172017569993
4.89E9                   -0.3915063332779963      0.6705936746526384
4.92E9                   -0.32449782771629376     0.7043698413637117
4.95E9                   -0.254675090330627       0.7314607211621212
4.98E9                   -0.18270428125457094     0.7516466999107019
5.01E9                   -0.10926613619528798     0.7647746943864908
5.04E9                   -0.03504920792757105     0.7707584960549405
5.07E9                   0.03925665750399113      0.7695783841250203
5.1E9                    0.11296652001855137      0.7612801375966021
5.13E9                   0.1854061976206669       0.7459735861675288
5.16E9                   0.25591781385906975      0.7238308119931873
5.19E9                   0.32386512197670875      0.6950840525187129
5.22E9                   0.3886386803813153       0.6600232797664136
5.25E9                   0.449660899417151        0.618993376640848
5.28E9                   0.5063908995670671       0.572390825423908
5.31E9                   0.5583290558346649       0.5206598746632702
5.34E9                   0.6050210875398655       0.4642882346183457
5.37E9                   0.6460615965514815       0.40380242617043155
5.4E9                    0.681097037982747        0.33976293722308476
5.43E9                   0.7098281865229545       0.2727593132265586
5.46E9                   0.732012205286356        0.20340524139605828
5.49E9                   0.7474644194617565       0.13233361267375973
5.52E9                   0.7560598524769564       0.06019148965854938
5.55E9                   0.7577345178005189       -0.012365112448922485
5.58E9                   0.75248639532556         -0.08467670994180002
5.61E9                   0.7403759727298163       -0.15608613378698744
5.64E9                   0.7215262089105583       -0.2259445827531466
5.67E9                   0.6961217851998378       -0.2936178461898619
5.7E9                    0.6644075544623181       -0.35849253226473166
5.73E9                   0.6266861749314349       -0.4199821004768353
5.76E9                   0.5833150070183194       -0.47753250701038913
5.79E9                   0.5347024250846552       -0.5306273335231934
5.82E9                   0.4813037191300161       -0.5787923645438342
5.85E9                   0.4236167218526914       -0.6215996643920908
5.88E9                   0.3621772167266437       -0.658671241868956
5.91E9                   0.29755410560596224      -0.6896823682868297
5.94E9                   0.23034427630261192      -0.7143645526244435
5.97E9                   0.1611671209858173       -0.7325081128328348
6.0E9                    0.09065870002277823      -0.7439642418481616
