% Model:              three_layers reality at 0.1mm.mph
% Version:            COMSOL 5.6.0.280
% Date:               Mar 10 2022, 16:56
% Table:              表格 1 - 全局计算 1
% freq (Hz)              real(emw.S11) (1)        imag(emw.S11) (1)
300000000                0.4584132762187798       -0.7456912925004009
330000000                0.3826674999666951       -0.7838695958280342
360000000                0.3040009838610793       -0.8146031785595809
390000000                0.22310186979582236      -0.8376650889759978
420000000                0.14068454784107126      -0.8528933877420249
450000000                0.05748099673685765      -0.8601941194543106
480000000                -0.02576746091067772     -0.8595431262308937
510000000                -0.1083180928162097      -0.8509868608150598
540000000                -0.18943442052482667     -0.8346423022283261
570000000                -0.268393614752858       -0.8106960472788561
600000000                -0.3444936027316903      -0.7794026355546145
630000000                -0.417059854487217       -0.7410821581266469
660000000                -0.48545180787036285     -0.6961171975951568
690000000                -0.5490688890211733      -0.6449491471485849
720000000                -0.6073560844133449      -0.5880739580660318
750000000                -0.65980902178709        -0.5260373677743029
780000000                -0.7059785204022089      -0.4594296633053401
810000000                -0.7454745747669206      -0.38888003794525816
840000000                -0.7779697407787523      -0.3150506015035335
870000000                -0.8032018983825918      -0.23863010716522287
900000000                -0.8209763709925408      -0.16032745911731516
930000000                -0.8311673876148404      -0.08086506717946891
960000000                -0.8337188802772414      -9.721146682971281E-4
990000000                -0.8286446156503152      0.07862219402933704
1020000000               -0.8160276662031054      0.15719534011963548
1050000000               -0.7960192326520593      0.23403808703111167
1080000000               -0.7688368355657789      0.308460904184777
1110000000               -0.7347619000323109      0.3798001578114582
1140000000               -0.6941367628491532      0.4474240118857405
1170000000               -0.6473611369452356      0.5107379858245248
1200000000               -0.5948880726546733      0.5691901195963155
1230000000               -0.5372194597028512      0.6222757016438729
1260000000               -0.4749011175955784      0.6695415198679151
1290000000               -0.40851752540930564     0.7105896010890755
1320000000               -0.33868624465304387     0.7450804099623517
1350000000               -0.2660520908939356      0.7727354839807283
1380000000               -0.19128111145843718     0.7933394869115639
1410000000               -0.11505442735392624     0.8067416688919229
1440000000               -0.038061997774849136    0.8128567272227534
1470000000               0.039003634480238074     0.8116650675893814
1500000000               0.11545355943092411      0.8032124711198592
1530000000               0.19060862211092433      0.7876091780845089
1560000000               0.26380539642123413      0.7650284042854574
1590000000               0.33440195878837997      0.7357043111206076
1620000000               0.40178341261475303      0.6999294549584323
1650000000               0.465367117606397        0.658051745802985
1680000000               0.5246075816548029       0.6104709491590778
1710000000               0.5790009768172809       0.5576347686240782
1740000000               0.6280892451376623       0.5000345499030493
1770000000               0.6714637645684903       0.43820064971782263
1800000000               0.7087685500527183       0.372697515407753
1830000000               0.7397029699508484       0.3041185228652675
1860000000               0.7640239634855391       0.23308062171701335
1890000000               0.7815477506919568       0.16021883733330983
1920000000               0.7921510327317997       0.08618067897448622
1950000000               0.7957716872322682       0.011620501935767205
1980000000               0.7924089706183299       -0.06280613161024996
2010000000               0.7821232469389519       -0.1364480543528462
2040000000               0.7650352696328064       -0.20866402913432208
2070000000               0.7413250471640787       -0.27882820434917943
2100000000               0.7112303214813256       -0.346335498873518
2130000000               0.6750446724159801       -0.4106069562286539
2.16E9                   0.6331152195145595       -0.47109514101584743
2.19E9                   0.5858398103325833       -0.5272896698853945
2.22E9                   0.53366345194528         -0.5787229362347468
2.25E9                   0.4770735834035074       -0.6249759363000544
2.28E9                   0.41659370092275855      -0.6656837644605278
2.31E9                   0.3527750449145131       -0.7005398331689021
2.34E9                   0.28618677738427856      -0.7292974498431329
2.37E9                   0.21740627201340657      -0.7517676216251674
2.4E9                    0.14701207682781217      -0.7678133589874165
2.43E9                   0.07558158474832961      -0.7773428741359114
2.46E9                   0.003693075571406901     -0.7803052375202626
2.49E9                   -0.06807087207093243     -0.7766907985214904
2.52E9                   -0.13912225739434803     -0.7665357288848519
2.55E9                   -0.20887067524371306     -0.7499278521272867
2.58E9                   -0.2767298628366959      -0.7270109403932481
2.61E9                   -0.3421258797037247      -0.697986166869506
2.64E9                   -0.4045051857050574      -0.6631108776772155
2.67E9                   -0.46334168486787636     -0.6226955246818812
2.7E9                    -0.5181425119363697      -0.5770995986958067
2.73E9                   -0.5684527069499307      -0.5267271243506787
2.76E9                   -0.6138590202596449      -0.472022001989123
2.79E9                   -0.6539930556370065      -0.41346330307612356
2.82E9                   -0.6885338888811575      -0.35156053816237254
2.85E9                   -0.71721023767895        -0.2868488861343465
2.88E9                   -0.7398022160002169      -0.2198843720512502
2.91E9                   -0.756142681935128       -0.1512389899071228
2.94E9                   -0.7661181756699809      -0.08149577824113292
2.97E9                   -0.7696694400364248      -0.011243866709377963
3.0E9                    -0.7667915163426219      0.058926480261394576
3.03E9                   -0.7575334110683601      0.12842879097451462
3.06E9                   -0.7419973332769577      0.19668524957249145
3.09E9                   -0.7203375076177964      0.26313145760935014
3.12E9                   -0.6927585729751756      0.3272210566239022
3.15E9                   -0.6595135817161355      0.38843017587237566
3.18E9                   -0.6209016185859156      0.44626167212510004
3.21E9                   -0.5772650610009221      0.5002491322674526
3.24E9                   -0.5289865034581488      0.5499606135365678
3.27E9                   -0.47648536785550066     0.5950020996581978
3.3E9                    -0.42021421911695855     0.6350206529284862
3.33E9                   -0.36065480252449444     0.6697072415731802
3.36E9                   -0.29831381693802905     0.698799218061465
3.39E9                   -0.2337184383003927      0.7220824176930072
3.42E9                   -0.16741161192333767     0.7393928387874787
3.45E9                   -0.0999471414620322      0.7506178578967957
3.48E9                   -0.031884617588887214    0.7556969283204819
3.51E9                   0.03621575072642962      0.7546217109959987
3.54E9                   0.10379831691817039      0.7474355964307906
3.57E9                   0.17031708393279157      0.7342325966587683
3.6E9                    0.23524057944173757      0.7151556162357372
3.63E9                   0.29805640071642847      0.6903941469364088
3.66E9                   0.3582753247573138       0.6601814653176814
3.69E9                   0.41543490496949204      0.6247914391321757
3.72E9                   0.4691025072406326       0.5845350644857906
3.75E9                   0.5188777702466325       0.5397568623309315
3.78E9                   0.5643945065371326       0.49083126429075713
3.81E9                   0.6053220961839259       0.4381591151101512
3.84E9                   0.6413664674322036       0.38216440631671866
3.87E9                   0.6722708052249783       0.3232913220540305
3.9E9                    0.6978161638370346       0.2620016158466611
3.93E9                   0.7178221628653962       0.19877225184150196
3.96E9                   0.7321479010458365       0.13409315782880488
3.99E9                   0.7406931323562636       0.06846488081953693
4.02E9                   0.7433996367647406       0.002395933779617477
4.05E9                   0.7402526188985761       -0.06360032093720344
4.08E9                   0.7312819125067294       -0.12900930708924152
4.11E9                   0.7165627707515487       -0.19331933536774745
4.14E9                   0.6962160754119175       -0.2560260276049542
4.17E9                   0.6704078808297105       -0.31663687518076544
4.2E9                    0.6393482950094449       -0.3746757412645768
4.23E9                   0.6032897687518312       -0.42968715271104857
4.26E9                   0.5625249010943961       -0.4812402845604493
4.29E9                   0.517383873129888        -0.5289325990812818
4.32E9                   0.4682315995200158       -0.5723931460840475
4.35E9                   0.41546465089129186      -0.6112855527860133
4.38E9                   0.35950796567521554      -0.645310729235085
4.41E9                   0.30081134777982294      -0.6742092966018213
4.44E9                   0.23984574159842786      -0.6977637210079201
4.47E9                   0.17709928606165892      -0.715800115048479
4.5E9                    0.1130731688721932       -0.7281896586351453
4.53E9                   0.04827732418770445      -0.7348495918641663
4.56E9                   -0.01677396363855994     -0.7357437441160039
4.59E9                   -0.08156647451863962     -0.7308825829911666
4.62E9                   -0.1455904056061982      -0.7203227910084268
4.65E9                   -0.20834459027652985     -0.7041664031856762
4.68E9                   -0.269340529653132       -0.682559558929738
4.71E9                   -0.3281062111793791      -0.6556909303120506
4.74E9                   -0.38418971807131536     -0.6237898808142689
4.77E9                   -0.4371626534687577      -0.5871243844144164
4.8E9                    -0.48662340420001704     -0.5459987025415874
4.83E9                   -0.5322002489682788      -0.5007507891863768
4.86E9                   -0.5735542811152453      -0.45174938495076394
4.89E9                   -0.6103820802928349      -0.39939077472133666
4.92E9                   -0.6424180442491759      -0.34409521722569364
4.95E9                   -0.6694362896896366      -0.2863030977526442
4.98E9                   -0.6912520513477431      -0.22647089555172972
5.01E9                   -0.7077225464639325      -0.16506708486751115
5.04E9                   -0.7187473204393546      -0.1025680962338203
5.07E9                   -0.724268138907842       -0.03945444887470672
5.1E9                    -0.7242685303397782      0.023792874288627242
5.13E9                   -0.71877309892054        0.08669579455455574
5.16E9                   -0.7078467098371304      0.14878229434582035
5.19E9                   -0.6915935978525714      0.2095894520178201
5.22E9                   -0.6701563799858941      0.2686664479535842
5.25E9                   -0.6437148928912938      0.32557759376414214
5.28E9                   -0.6124847552823357      0.37990536340958236
5.31E9                   -0.5767155888828673      0.4312533348053852
5.34E9                   -0.5366889038590251      0.47924891854818813
5.37E9                   -0.49271573068587        0.523545773763128
5.4E9                    -0.4451341233486521      0.5638258770292662
5.43E9                   -0.3943066509161355      0.5998012867797341
5.46E9                   -0.340617943827257       0.6312156992060598
5.49E9                   -0.28447229214949754     0.6578459047700191
5.52E9                   -0.22629123201794865     0.6795032279856359
5.55E9                   -0.16651102058655098     0.6960349811490756
5.58E9                   -0.10557989479005912     0.7073259021930867
5.61E9                   -0.043955032764092475    0.7132994919521254
5.64E9                   0.01790081681998057      0.7139191270019973
5.67E9                   0.07952301002491886      0.7091888092929134
5.7E9                    0.14044889291478155      0.6991534307781437
5.73E9                   0.20022174766732503      0.683898483841865
5.76E9                   0.25839463062778484      0.6635492280810601
5.79E9                   0.3145339640397138       0.6382694054674318
5.82E9                   0.36822281814979035      0.6082596442057135
5.85E9                   0.4190639080557363       0.5737556830781093
5.88E9                   0.4666823888404119       0.5350264884834198
5.91E9                   0.5107285386351025       0.49237225890370984
5.94E9                   0.5508803781904915       0.4461222543867136
5.97E9                   0.5868462149685533       0.39663237215672753
6.0E9                    0.6183670483061967       0.34428240980452596
