% Model:              three_layers reality at 0.1mm.mph
% Version:            COMSOL 5.6.0.280
% Date:               Mar 10 2022, 16:57
% Table:              表格 1 - 全局计算 1
% freq (Hz)              real(emw.S11) (1)        imag(emw.S11) (1)
300000000                0.4580415595186784       -0.7447303895568631
330000000                0.38243594225716093      -0.782846511430727
360000000                0.30391621140223146      -0.8135388883318528
390000000                0.22316771527729032      -0.8365804759347846
420000000                0.14090221916028495      -0.8518090882822984
450000000                0.0578492054396234       -0.859130349955925
480000000                -0.025252386773142455    -0.858519494951046
510000000                -0.10766209482353109     -0.8500221707901308
540000000                -0.18864558686010913     -0.8337543511913581
570000000                -0.2674820425253958      -0.8099014300584773
600000000                -0.343471243006751       -0.7787165539560356
630000000                -0.415940339349692       -0.7405182426239213
660000000                -0.4842502599655625      -0.6956873445821272
690000000                -0.547801714705606       -0.6446633750602291
720000000                -0.6060407525717495      -0.5879402849958189
750000000                -0.6584638306806341      -0.5260617127555105
780000000                -0.7046223550582611      -0.45961577313300284
810000000                -0.7441266581446233      -0.3892294404687464
840000000                -0.7766493814689679      -0.31556258649088387
870000000                -0.801928238205014       -0.23930173478882827
900000000                -0.8197681354739258      -0.16115359620757388
930000000                -0.8300426425500866      -0.08183845062710915
960000000                -0.832694797336102       -0.0020834411135795027
990000000                -0.8277372499066793      0.07738415329123538
1020000000               -0.8152517482841743      0.15584360078104734
1050000000               -0.7953879779981186      0.23258729156584443
1080000000               -0.7683617730431108      0.3069271420802822
1110000000               -0.7344527218758901      0.3782007684449248
1140000000               -0.6940011976204127      0.4457773726508138
1170000000               -0.6474048468976865      0.5090632881524985
1200000000               -0.5951145766405678      0.5675071356002271
1230000000               -0.5376300822332505      0.6206045444865824
1260000000               -0.47549496463133467     0.6679024005393505
1290000000               -0.4092914868816248      0.7090025847058761
1320000000               -0.33963502349593133     0.7435651744516812
1350000000               -0.26716825809869915     0.7713110839818396
1380000000               -0.19255518624168053     0.7920241257001465
1410000000               -0.11647498131819667     0.8055524809342702
1440000000               -0.03961578166611748     0.8118095738394677
1470000000               0.03733154303127524      0.8107743480207179
1500000000               0.11367958920259512      0.8024909510947276
1530000000               0.1887505245212857       0.7870678377318029
1560000000               0.261882047119089        0.7646763070010134
1590000000               0.3324331468886266       0.7355484947474936
1620000000               0.3997896201586688       0.699974846344624
1650000000               0.4633692918249313       0.6583010995211256
1680000000               0.5226269027078214       0.6109248108862385
1710000000               0.5770586236323348       0.5582914634111659
1740000000               0.6262061620704341       0.5008901952137607
1770000000               0.6696604314467258       0.4392491929061228
1800000000               0.7070647581865512       0.37393079495382386
1830000000               0.7381176065174639       0.30552635248636467
1860000000               0.7625748066089116       0.23465089614414283
1890000000               0.7802512773245756       0.16193765841888152
1920000000               0.7910222413171852       0.08803250041332379
1950000000               0.7948239368321581       0.013588290879113646
1980000000               0.79165383798446         -0.06074071810518042
2010000000               0.7815704026963375       -0.13430448000793993
2040000000               0.7646923744480518       -0.20646267853329758
2070000000               0.741197668438927        -0.27659017446533585
2100000000               0.711321870774928        -0.34408238405566577
2130000000               0.6753563635452924       -0.4083606283585923
2.16E9                   0.6336460471380818       -0.46887752612120215
2.19E9                   0.5865865490451573       -0.5251225218679996
2.22E9                   0.5346206766183486       -0.5766276078639451
2.25E9                   0.4782337129146587       -0.622973147533588
2.28E9                   0.417947069435483        -0.6637933692123386
2.31E9                   0.35431000631643955      -0.6987805888635977
2.34E9                   0.2878898476865393       -0.7276867991177949
2.37E9                   0.21926230893436963      -0.7503215004528478
2.4E9                    0.14900448622802606      -0.7665460455496449
2.43E9                   0.07769253463967588      -0.776266884750306
2.46E9                   0.005903697946317088     -0.779431262231809
2.49E9                   -0.06578030137753821     -0.7760276586523138
2.52E9                   -0.1367721565767935      -0.7660903391101317
2.55E9                   -0.20648199958277422     -0.7497051789584366
2.58E9                   -0.2743239409781194      -0.7270139594524622
2.61E9                   -0.33972423739614066     -0.6982158269446503
2.64E9                   -0.402129357435371       -0.6635660797008294
2.67E9                   -0.4610130175828282      -0.6233731210135396
2.7E9                    -0.5158819660038599      -0.5779944150432963
2.73E9                   -0.5662806591112369      -0.5278320044390168
2.76E9                   -0.6117950723893815      -0.47332787381182817
2.79E9                   -0.6520558521065714      -0.4149592651219455
2.82E9                   -0.686740944770183       -0.3532339636799413
2.85E9                   -0.7155777794069573      -0.2886855436679409
2.88E9                   -0.7383450357138832      -0.221868560428495
2.91E9                   -0.7548740067001012      -0.15335368592722443
2.94E9                   -0.7650495523324531      -0.0837227953877893
2.97E9                   -0.7688106364634187      -0.01356402319272796
3.0E9                    -0.7661504396117822      0.05653318580819905
3.03E9                   -0.7571160430320335      0.12598299779318617
3.06E9                   -0.7418076837989761      0.19420804875717462
3.09E9                   -0.7203775856392763      0.26064420341219385
3.12E9                   -0.6930283754210488      0.3247451767348271
3.15E9                   -0.6600111001278037      0.38598698229123474
3.18E9                   -0.6216228632095975      0.44387217420411773
3.21E9                   -0.5782041019464591      0.4979338534606029
3.24E9                   -0.5301355284315591      0.5477394132839598
3.27E9                   -0.4778347558488627      0.5928940018142308
3.3E9                    -0.421752629379834       0.6330436820214496
3.33E9                   -0.36236927808035174     0.6678782681310036
3.36E9                   -0.30018990184675237     0.6971338141928328
3.39E9                   -0.2357403078581598      0.7205947240737973
3.42E9                   -0.16956221486441336     0.738095444231551
3.45E9                   -0.10220835325105143     0.7495216926631941
3.48E9                   -0.03423740358080298     0.7548111724018018
3.51E9                   0.03379116347994167      0.7539537185723063
3.54E9                   0.10132226088444406      0.7469908376787485
3.57E9                   0.16781026714276628      0.734014617939981
3.6E9                    0.23272389856578038      0.7151660194697333
3.63E9                   0.2955507535866538       0.6906325885918045
3.66E9                   0.35580142485818045      0.6606456750190736
3.69E9                   0.4130131005174647       0.6254772573721055
3.72E9                   0.46675260726260853      0.5854364984484711
3.75E9                   0.5166188798945662       0.5408661583533543
3.78E9                   0.5622448734694864       0.49213899509617276
3.81E9                   0.603298969380975        0.4396542796451695
3.84E9                   0.6394859692361842       0.3838345398502332
3.87E9                   0.6705478167629878       0.32512261421219585
3.9E9                    0.6962642233592832       0.26397903452913724
3.93E9                   0.716453376047776        0.2008796714941179
3.96E9                   0.7309728621318453       0.1363134912081171
3.99E9                   0.7397208551454878       0.07078021409634654
4.02E9                   0.7426374949328753       0.0047876653217495055
4.05E9                   0.7397062957689595       -0.06115133757117346
4.08E9                   0.7309553610220721       -0.12652261558206476
4.11E9                   0.7164581848357682       -0.19081472455054072
4.14E9                   0.6963338740749525       -0.253523375552638
4.17E9                   0.670746706236011        -0.3141559906990137
4.2E9                    0.6399050253759292       -0.37223620446689054
4.23E9                   0.6040595464666154       -0.4273081565900432
4.26E9                   0.5635011759773729       -0.47894047946603263
4.29E9                   0.5185584603588861       -0.526729941888074
4.32E9                   0.4695947514967923       -0.5703047555879251
4.35E9                   0.4170051421901375       -0.6093275726284493
4.38E9                   0.36121319018312015      -0.643498199477529
4.41E9                   0.30266742714024775      -0.6725560349525816
4.44E9                   0.2418376440778218       -0.6962822146486998
4.47E9                   0.17921095485575178      -0.7145014240204725
4.5E9                    0.1152876588136893       -0.7270833316949921
4.53E9                   0.050576945645228126     -0.7339435956814606
4.56E9                   -0.014407495043513486    -0.7350444065782185
4.59E9                   -0.07915188389100952     -0.7303945511953487
4.62E9                   -0.14314670208054175     -0.7200490043136762
4.65E9                   -0.20589090932143864     -0.7041080814152609
4.68E9                   -0.26689597601404513     -0.6827162055475364
4.71E9                   -0.325689703958298       -0.6560603501583563
4.74E9                   -0.3818198392824383      -0.6243682118141968
4.77E9                   -0.43485750119161887     -0.5879061426138039
4.8E9                    -0.4844004513012446      -0.5469768398479513
4.83E9                   -0.5300762083255209      -0.5019167632444781
4.86E9                   -0.571544978292247       -0.45309324061675654
4.89E9                   -0.6085023347019345      -0.40090123658092836
4.92E9                   -0.6406815599466862      -0.34575979241220106
4.95E9                   -0.6678555569628473      -0.28810818811918076
4.98E9                   -0.6898382601647676      -0.22840191795825843
5.01E9                   -0.706485512664456       -0.1671085980591701
5.04E9                   -0.7176954252014677      -0.10470393261351452
5.07E9                   -0.7234082816408219      -0.041667849397923784
5.1E9                    -0.7236060947434685      0.021519123772180897
5.13E9                   -0.7183119316226644      0.08437922694032429
5.16E9                   -0.7075891108456653      0.14644062594383667
5.19E9                   -0.6915403220977989      0.20724044895951918
5.22E9                   -0.6703066494052211      0.26632779480517765
5.25E9                   -0.6440664187989575      0.323266764720768
5.28E9                   -0.6130337709331393      0.377639496676441
5.31E9                   -0.577456892152811       0.42904911094553944
5.34E9                   -0.5376159097489412      0.4771224438400422
5.37E9                   -0.4938205330106212      0.5215124696018787
5.4E9                    -0.44640756467695963     0.561900376220751
5.43E9                   -0.3957383996683581      0.5979973372166589
5.46E9                   -0.3421965774875346      0.6295460750683579
5.49E9                   -0.2861853857818525      0.6563223251094565
5.52E9                   -0.22812545160927328     0.6781362824493341
5.55E9                   -0.16845222100758708     0.694834062704274
5.58E9                   -0.10761322238864963     0.706299146918324
5.61E9                   -0.046065032644975724    0.7124537262609261
5.64E9                   0.01573008890205152      0.7132598229700126
5.67E9                   0.07730787148558048      0.7087200489482659
5.7E9                    0.13820591459012554      0.6988778802892105
5.73E9                   0.1979676315845561       0.6838173783809777
5.76E9                   0.2561460866665691       0.6636623678088994
5.79E9                   0.312307586916808        0.6385751626406405
5.82E9                   0.36603496600370333      0.6087549810169184
5.85E9                   0.41693058354776263      0.5744361796296652
5.88E9                   0.46461912337517397      0.535886380323443
5.91E9                   0.5087502801113656       0.49340448374477885
5.94E9                   0.5490013826727363       0.4473185078767638
5.97E9                   0.5850799428631935       0.3979831727094143
6.0E9                    0.6167260658470006       0.3457771724778347
