% Model:              three_layers reality at 0.1mm.mph
% Version:            COMSOL 5.6.0.280
% Date:               Feb 23 2022, 19:41
% Table:              表格 1 - 全局计算 1
% freq (Hz)              real(emw.S11) (1)        imag(emw.S11) (1)
300000000                0.5398349076047027       -0.7281833399884214
330000000                0.4711148527099063       -0.7728158089277515
360000000                0.3988405745128665       -0.8111077809075008
390000000                0.32357401275210673      -0.8427677736595953
420000000                0.24590559410060708      -0.8675553429330782
450000000                0.16644849650590815      -0.8852835437302418
480000000                0.08583305445642023      -0.8958209048449819
510000000                0.004701211383982518     -0.8990929141783908
540000000                -0.07629902151622191     -0.8950830097259183
570000000                -0.15651910498541693     -0.8838330691624448
600000000                -0.23531549724765705     -0.8654433920955873
630000000                -0.3120551382109068      -0.840072171005518
660000000                -0.3861208581495893      -0.8079344500399686
690000000                -0.45691667032595085     -0.7693005747668555
720000000                -0.5238729038540283      -0.724494140577116
750000000                -0.5864511313891376      -0.6738894521795271
780000000                -0.6441488449171789      -0.6179085122117414
810000000                -0.6965038340989212      -0.5570175619160419
840000000                -0.7430982222254967      -0.4917232027964682
870000000                -0.7835621179892723      -0.42256813272972116
900000000                -0.8175768436168509      -0.3501265358631211
930000000                -0.8448777046725926      -0.2749991693439201
960000000                -0.8652562707920208      -0.19780819500755764
990000000                -0.8785621424426422      -0.11919180682334803
1020000000               -0.8847041841871262      -0.03979870849543757
1050000000               -0.8836512113472846      0.03971750278476101
1080000000               -0.8754321233059387      0.1187039888788784
1110000000               -0.8601354833118844      0.19651430176697082
1140000000               -0.8379085512593543      0.27251393551629033
1170000000               -0.808955782399658       0.34608574310696666
1200000000               -0.773536811208913       0.4166351639983825
1230000000               -0.7319639454689416      0.4835952113387678
1260000000               -0.6845992011089721      0.54643117113637
1290000000               -0.6318509131051743      0.6046449701454619
1320000000               -0.5741699619955237      0.657779173801158
1350000000               -0.5120456590896981      0.7054205806901973
1380000000               -0.4460013361565521      0.7472033855845975
1410000000               -0.37658968741930005     0.7828118886253642
1440000000               -0.3043879129499256      0.8119827339490758
1470000000               -0.2299927130619171      0.8345066667321079
1500000000               -0.1540151830986851      0.8502298031459928
1530000000               -0.07707565721437942     0.8590544129894016
1560000000               2.0145164507443525E-4    0.8609392197317556
1590000000               0.07719277041136063      0.8558992273382482
1620000000               0.1532810001853555       0.8440050873692787
1650000000               0.22785982619199585      0.8253820235880003
1680000000               0.3003386659945978       0.8002083345408906
1710000000               0.37014722216740775      0.7687134973012497
1740000000               0.4367398086085105       0.7311758978585945
1770000000               0.49959942322758977      0.6879202154124007
1800000000               0.5582415428361314       0.6393144893041934
1830000000               0.6122176197070616       0.5857668981371267
1860000000               0.661118262019722        0.5277222815128257
1890000000               0.704576083869662        0.46565843491293446
1920000000               0.7422682132407292       0.4000822084565906
1950000000               0.7739184493338656       0.3315254399438279
1980000000               0.7992990633865112       0.26054075211623456
2010000000               0.8182322398694706       0.18769724319136083
2040000000               0.8305911576269356       0.11357609827938553
2070000000               0.8363007129674941       0.03876614719415542
2100000000               0.8353378886234659       -0.03614060918946018
2130000000               0.827731772963654        -0.11055348659596471
2.16E9                   0.8135632312751622       -0.18388760782534952
2.19E9                   0.7929642227739635       -0.2555683911408192
2.22E9                   0.7661167404923849       -0.32503603370966955
2.25E9                   0.7332513260498882       -0.3917499764152004
2.28E9                   0.6946450866924554       -0.45519329894727395
2.31E9                   0.6506191439394808       -0.5148769234302473
2.34E9                   0.6015355126447798       -0.5703434214239408
2.37E9                   0.5477935656978258       -0.6211701952084558
2.4E9                    0.48982641602949395      -0.6669719326374204
2.43E9                   0.4280975785369041       -0.7074025147574194
2.46E9                   0.36309803997666706      -0.7421567994988933
2.49E9                   0.29534349132101756      -0.7709726676268764
2.52E9                   0.2253712743480737       -0.7936333907430111
2.55E9                   0.15373672047854045      -0.8099700416111326
2.58E9                   0.0810088585276624       -0.8198635665125672
2.61E9                   0.0077656869488038184    -0.8232462671572516
2.64E9                   -0.06541074872367343     -0.8201026242767444
2.67E9                   -0.13793929763577797     -0.8104695116148888
2.7E9                    -0.20924457145270017     -0.7944358811518704
2.73E9                   -0.27876169861055333     -0.7721419859079186
2.76E9                   -0.3459409474406594      -0.7437781813530331
2.79E9                   -0.41025220287985614     -0.7095833273983998
2.82E9                   -0.4711892765204757      -0.6698428033339852
2.85E9                   -0.528274023633116       -0.6248861457643202
2.88E9                   -0.581060236313307       -0.57508432152254
2.91E9                   -0.6291372794364718      -0.5208466516136873
2.94E9                   -0.6721334356946159      -0.46261740693690767
2.97E9                   -0.7097189269189599      -0.4008721013985973
3.0E9                    -0.7416085810171955      -0.33611351260123556
3.03E9                   -0.7675641168860469      -0.26886746442214415
3.06E9                   -0.7873960234004279      -0.19967840936819128
3.09E9                   -0.8009650128417803      -0.1291048516478572
3.12E9                   -0.8081830339041318      -0.0577146541528262
3.15E9                   -0.8090138344495795      0.013919725865689956
3.18E9                   -0.8034730693700962      0.0852260268589668
3.21E9                   -0.7916279540844166      0.15563695326233984
3.24E9                   -0.7735964691092141      0.22459488126419003
3.27E9                   -0.7495461256944925      0.2915564565938057
3.3E9                    -0.7196923065571765      0.35599704281914035
3.33E9                   -0.684296199311689       0.41741498047119513
3.36E9                   -0.6436623433357569      0.4753356194163858
3.39E9                   -0.5981358137717914      0.5293150886844464
3.42E9                   -0.5480990693213457      0.578943769684214
3.45E9                   -0.49396849383613617     0.6238494403020761
3.48E9                   -0.4361906655471535      0.6637000592608688
3.51E9                   -0.3752383923337721      0.6982061625876426
3.54E9                   -0.3116065564408159      0.7271228478143238
3.57E9                   -0.24580781704836563     0.7502513270332396
3.6E9                    -0.1783682231012648      0.767440037432926
3.63E9                   -0.10982279092001478     0.7785853070243877
3.66E9                   -0.04071110044483035     0.7836315830634464
3.69E9                   0.02842703933350084      0.7825712398579814
3.72E9                   0.09705581060711968      0.7754439903398932
3.75E9                   0.16464745400716582      0.7623359317517828
3.78E9                   0.23068615135560722      0.7433782604948043
3.81E9                   0.29467170060584386      0.7187456949425378
3.84E9                   0.35612296972658336      0.6886546471143647
3.87E9                   0.4145811280986957       0.6533611826636271
3.9E9                    0.4696126656864282       0.6131588016157021
3.93E9                   0.520812217922403        0.5683760595134548
3.96E9                   0.5678052143829755       0.5193740326314301
3.99E9                   0.6102503603818139       0.4665436168393126
4.02E9                   0.6478419449568449       0.4103026427195312
4.05E9                   0.6803119515444046       0.35109279238007973
4.08E9                   0.7074319345899639       0.28937631535016467
4.11E9                   0.7290146206222972       0.22563255762410261
4.14E9                   0.7449151964220093       0.1603543345358722
4.17E9                   0.755032258050182        0.09404418994370484
4.2E9                    0.7593084087944615       0.02721058932908977
4.23E9                   0.7577305078331751       -0.03963590743366718
4.26E9                   0.7503295815436399       -0.10598645477254112
4.29E9                   0.7371804143691048       -0.17133768203765107
4.32E9                   0.7184008360479095       -0.2351953851229697
4.35E9                   0.6941507182916574       -0.29707813404458855
4.38E9                   0.6646306889907212       -0.35652078327216863
4.41E9                   0.6300805679841557       -0.4130778699795472
4.44E9                   0.590777526834714        -0.4663268816128551
4.47E9                   0.5470339763065798       -0.5158713699726921
4.5E9                    0.4991951887772114       -0.5613438858707512
4.53E9                   0.4476366678570468       -0.602408706912488
4.56E9                   0.3927612828511491       -0.6387643316450623
4.59E9                   0.33499619093608524      -0.6701457157120752
4.62E9                   0.27478957387467634      -0.696326230029452
4.65E9                   0.21260721847344294      -0.7171193263773088
4.68E9                   0.1489289696911044       -0.7323799016369938
4.71E9                   0.08424508272474807      -0.7420053564401459
4.74E9                   0.019052496078204764     -0.7459363459337084
4.77E9                   -0.046148956109682976    -0.7441572188052419
4.8E9                    -0.11086037532549914     -0.7366961365086491
4.83E9                   -0.17458765315523356     -0.7236248599634435
4.86E9                   -0.23684532155463797     -0.7050581888209486
4.89E9                   -0.29716036261686707     -0.6811530407382957
4.92E9                   -0.35507593378357677     -0.6521071654002901
4.95E9                   -0.4101549602847211      -0.6181574989830402
4.98E9                   -0.4619835473480531      -0.5795781770864818
5.01E9                   -0.5101741704437075      -0.5366782354960931
5.04E9                   -0.5543686116689649      -0.48979903632977484
5.07E9                   -0.5942406226287258      -0.439311460587902
5.1E9                    -0.6294983065094883      -0.38561290566239786
5.13E9                   -0.6598862211036782      -0.32912411840055156
5.16E9                   -0.6851872073302174      -0.2702858829000536
5.19E9                   -0.7052239424946608      -0.20955557190911023
5.22E9                   -0.7198602059379806      -0.1474035668128853
5.25E9                   -0.7290018322376979      -0.08430955735027366
5.28E9                   -0.7325973211470086      -0.020758747120683516
5.31E9                   -0.7306380789159146      0.04276199134108963
5.34E9                   -0.7231582819891762      0.10576795660512789
5.37E9                   -0.7102343746994171      0.16778039820633783
5.4E9                    -0.6919842288801601      0.2283301927672013
5.43E9                   -0.6685659993835382      0.2869613902403363
5.46E9                   -0.6401767048373502      0.3432346197720346
5.49E9                   -0.607050551671788       0.3967303530523364
5.52E9                   -0.5694570071872821      0.447052022712769
5.55E9                   -0.5276986188237354      0.4938289861163906
5.58E9                   -0.482108574058961       0.5367193142194906
5.61E9                   -0.43304799893935986     0.5754123740685214
5.64E9                   -0.3809030025686812      0.6096311646098205
5.67E9                   -0.3260814888022349      0.6391343611075415
5.7E9                    -0.26900977308220847     0.6637180259577015
5.73E9                   -0.21012905802860332     0.6832169548863588
5.76E9                   -0.14989183039801368     0.6975056469393173
5.79E9                   -0.08875823960244987     0.7064989091578616
5.82E9                   -0.02719250330462284     0.7101521243369578
5.85E9                   0.034340635395570376     0.7084612154258085
5.88E9                   0.09537939223844134      0.7014623319846731
5.91E9                   0.15546836734124822      0.6892312687239646
5.94E9                   0.21416190682113445      0.6718826125884585
5.97E9                   0.2710273837182964       0.6495686091981349
6.0E9                    0.32564836989744583      0.622477742551788
