% Model:              three_layers reality at 0.1mm.mph
% Version:            COMSOL 5.6.0.280
% Date:               Mar 10 2022, 16:16
% Table:              表格 1 - 全局计算 1
% freq (Hz)              real(emw.S11) (1)        imag(emw.S11) (1)
300000000                0.46321655697551756      -0.7618120819164973
330000000                0.3854560434380693       -0.8003169578879761
360000000                0.3047942744249584       -0.8311540055648721
390000000                0.2219338300314064       -0.8541047729711853
420000000                0.13760452780911211      -0.8690148862464693
450000000                0.05255450522427321      -0.8757980761623435
480000000                -0.03245835775558827     -0.8744386625810299
510000000                -0.11667472614035788     -0.864992783272359
540000000                -0.1993418223335823      -0.8475885490749984
570000000                -0.27972115384078133     -0.8224252487674267
600000000                -0.35709592867673856     -0.7897716940178814
630000000                -0.4307781225481482      -0.7499637769284855
660000000                -0.5001151548730524      -0.7034013035710917
690000000                -0.5644961288067654      -0.6505441630673149
720000000                -0.6233575900944937      -0.5919078908627075
750000000                -0.676188761429243       -0.5280586858494581
780000000                -0.7225362121239569      -0.4596079425699525
810000000                -0.7620079268781291      -0.387206362215381
840000000                -0.7942767427409403      -0.31153770795482805
870000000                -0.8190831288412497      -0.23331227216412806
900000000                -0.8362372896232959      -0.15326012463566263
930000000                -0.8456205788214568      -0.07212421173238924
960000000                -0.8471862180709959      0.009346623193910388
990000000                -0.8409593208380285      0.09040462800292763
1020000000               -0.8270362290516942      0.170310069630765
1050000000               -0.8055831764942575      0.24833803404267926
1080000000               -0.7768342994990021      0.3237850329433396
1110000000               -0.7410890215303652      0.3959753551905784
1140000000               -0.6987088441927864      0.4642671038511115
1170000000               -0.6501135824744062      0.5280578641470727
1200000000               -0.5957770870046509      0.586789952004077
1230000000               -0.5362225004576517      0.6399551978214246
1260000000               -0.47201709906249933     0.6870992254269155
1290000000               -0.4037667734161734      0.7278251917446052
1320000000               -0.3321102053174003      0.7617969586505402
1350000000               -0.25771279952311377     0.7887416743023998
1380000000               -0.18126043029347763     0.8084517475996225
1410000000               -0.10345306379172464     0.8207862052312657
1440000000               -0.024998317021185202    0.8256714271438738
1470000000               0.05339498622012471      0.8231012620116808
1500000000               0.131023203021962        0.8131365302438734
1530000000               0.2071941450801818       0.7959039276197798
1560000000               0.28123318292365607      0.7715943479920933
1590000000               0.3524891276416304       0.740460648572656
1620000000               0.420339840408508        0.702814885986821
1650000000               0.4841975232747666       0.6590250557091321
1680000000               0.5435136488018383       0.6095113713573426
1710000000               0.5977834900467087       0.5547421240014123
1740000000               0.6465502170871379       0.49522916465375677
1770000000               0.6894085308974177       0.43152305587096723
1800000000               0.7260078105045267       0.3642079406586683
1830000000               0.7560547548264982       0.29389617836986776
1860000000               0.7793155060758998       0.22122279878973172
1890000000               0.7956172479776861       0.1468398256384255
1920000000               0.804849278423313        0.07141052061625222
1950000000               0.8069635633491438       -0.004396402814589514
1980000000               0.8019747861873665       -0.07991255026233135
2010000000               0.7899599149542322       -0.15447556232785964
2040000000               0.7710573162726082       -0.22743474692712204
2070000000               0.745465450097565        -0.2981566154486787
2100000000               0.7134411767098641       -0.36603033442425165
2130000000               0.675297690634979        -0.4304731364979622
2.16E9                   0.6314020522725073       -0.4909357692781258
2.19E9                   0.5821722010521567       -0.546908081154439
2.22E9                   0.528073194780235        -0.5979248082087225
2.25E9                   0.4696122525281002       -0.6435714671349507
2.28E9                   0.40733208800211734      -0.6834899018263609
2.31E9                   0.34180222785357856      -0.7173824927380301
2.34E9                   0.273608765293708        -0.7450135938913829
2.37E9                   0.20334425392331765      -0.7662070133974569
2.4E9                    0.13160043129714458      -0.7808398251825779
2.43E9                   0.05896590921713472      -0.7888350326271757
2.46E9                   -0.0139715250976149      -0.7901568305511691
2.49E9                   -0.08662115352235773     -0.784810889812988
2.52E9                   -0.15838796355701348     -0.7728489907908483
2.55E9                   -0.22867562456778315     -0.7543750252513552
2.58E9                   -0.29689316149443956     -0.7295494057809035
2.61E9                   -0.36246333522056534     -0.6985905054303816
2.64E9                   -0.4248309079949338      -0.6617733010371786
2.67E9                   -0.4834698163345336      -0.6194261053534474
2.7E9                    -0.5378890191889835      -0.5719262707013139
2.73E9                   -0.5876371762641998      -0.5196954542565387
2.76E9                   -0.63230641348669        -0.4631947447985799
2.79E9                   -0.6715353959412788      -0.40291976264683643
2.82E9                   -0.7050118548665067      -0.33939575224764656
2.85E9                   -0.7324746501872381      -0.2731726550995914
2.88E9                   -0.753715405652444       -0.20482014869667517
2.91E9                   -0.7685797276891693      -0.134922646787044
2.94E9                   -0.7769680062809532      -0.06407426808561449
2.97E9                   -0.7788357915693598      0.007126208844191233
3.0E9                    -0.7741937399924755      0.07808037848237398
3.03E9                   -0.7631071267008777      0.14819519722105393
3.06E9                   -0.7456949253061933      0.2168878926211244
3.09E9                   -0.7221284611127833      0.28359075576876
3.12E9                   -0.6926296492518191      0.34775577930634605
3.15E9                   -0.6574688340764044      0.4088591054626169
3.18E9                   -0.6169622502597409      0.46640525129441096
3.21E9                   -0.571469128688877       0.5199310824315411
3.24E9                   -0.5213884710340937      0.5690095108570796
3.27E9                   -0.46715551578867687     0.6132528957712254
3.3E9                    -0.40923791584157193     0.6523161284714782
3.33E9                   -0.3481316444930402      0.6858993812560678
3.36E9                   -0.2843566444139352      0.7137504965264314
3.39E9                   -0.21845223418763587     0.7356669856295642
3.42E9                   -0.1509722914585396      0.7514975985702633
3.45E9                   -0.08248024137286568     0.7611434176477914
3.48E9                   -0.013543894730608486    0.7645584228148143
3.51E9                   0.05526979912810379      0.761749477552609
3.54E9                   0.12339999662066746      0.7527756942825758
3.57E9                   0.1902970926250175       0.737747159578813
3.6E9                    0.25542762021039317      0.7168230307160876
3.63E9                   0.3182787963506565       0.6902090519702174
3.66E9                   0.3783626077669402       0.6581545745507977
3.69E9                   0.43521935808938184      0.6209491913857431
3.72E9                   0.48842063062952334      0.5789191138092349
3.75E9                   0.5375716542048491       0.5324234235128222
3.78E9                   0.5823130924311952       0.48185033388405824
3.81E9                   0.6223223131694646       0.4276135913552305
3.84E9                   0.657314238739803        0.37014913346556505
3.87E9                   0.6870419249434665       0.30991208475238907
3.9E9                    0.7112970525567708       0.24737410663090764
3.93E9                   0.72991051676327         0.1830210290878267
3.96E9                   0.7427532523244612       0.11735060333435526
3.99E9                   0.7497373381979018       0.050870157261407214
4.02E9                   0.7508173091456087       -0.015906065186697137
4.05E9                   0.7459914999606518       -0.08246003925681702
4.08E9                   0.7353031918993693       -0.14827362470826136
4.11E9                   0.7188413345721575       -0.2128327036213825
4.14E9                   0.6967406726440452       -0.27563164230406284
4.17E9                   0.6691811929495117       -0.3361778813046822
4.2E9                    0.6363868971994986       -0.3939964573704572
4.23E9                   0.5986239757717498       -0.44863429968285073
4.26E9                   0.5561984958733536       -0.49966420236748643
4.29E9                   0.5094537204556334       -0.5466884362568406
4.32E9                   0.45876714996648327      -0.5893420090216143
4.35E9                   0.40454734139919         -0.6272956044172987
4.38E9                   0.34723052312364155      -0.6602582287235108
4.41E9                   0.28727700140444096      -0.6879795726281641
4.44E9                   0.22516734962554247      -0.7102520714101757
4.47E9                   0.1613983820351077       -0.7269126251200633
4.5E9                    0.09647893398431436      -0.7378439298537176
4.53E9                   0.030925493319566757     -0.7429753726131092
4.56E9                   -0.03474225260420951     -0.7422834543277967
4.59E9                   -0.1000058767213659      -0.7357917257599835
4.62E9                   -0.1643525975790457      -0.7235702460869865
4.65E9                   -0.22727951674947305     -0.7057345997177256
4.68E9                   -0.28829765486802333     -0.6824445274725788
4.71E9                   -0.3469357617689637      -0.6539022366605171
4.74E9                   -0.4027439063142909      -0.6203504458372079
4.77E9                   -0.455296871704171       -0.58207019473826
4.8E9                    -0.5041973827718186      -0.5393784164710297
4.83E9                   -0.5490791706177924      -0.4926252412564022
4.86E9                   -0.5896098441546777      -0.44219099165141396
4.89E9                   -0.6254935014843197      -0.38848284394708527
4.92E9                   -0.656472990725198       -0.33193116520859756
4.95E9                   -0.6823317282111279      -0.2729855796288962
4.98E9                   -0.7028950032740116      -0.21211085885002193
5.01E9                   -0.7180307383428357      -0.14978275841245056
5.04E9                   -0.7276497229965001      -0.08648392963166605
5.07E9                   -0.7317053911617165      -0.022700019119313082
5.1E9                    -0.7301932498611325      0.04108397281103051
5.13E9                   -0.7231500830622775      0.10438706247091589
5.16E9                   -0.7106530351020227      0.16673543138338578
5.19E9                   -0.6928186248638895      0.22766544587382134
5.22E9                   -0.6698016698079859      0.2867266440280709
5.25E9                   -0.641794037700194       0.34348474280595687
5.28E9                   -0.6090231240431008      0.39752464294055473
5.31E9                   -0.5717499881937335      0.44845333754332906
5.34E9                   -0.530267155834462       0.495902598700855
5.37E9                   -0.48489617308263855     0.5395313412474065
5.4E9                    -0.435985040556269       0.5790276311887077
5.43E9                   -0.38390564651359665     0.6141103844989644
5.46E9                   -0.3290512654317043      0.6445308561819951
5.49E9                   -0.27183411730292434     0.6700740319516325
5.52E9                   -0.2126829207351305      0.6905600068020794
5.55E9                   -0.15204033685279442     0.7058453809591936
5.58E9                   -0.09036019671627465     0.7158246415701599
5.61E9                   -0.02810442982783634     0.7204314425742464
5.64E9                   0.03426034056057734      0.7196396557455597
5.67E9                   0.0962665058151071       0.7134640514678025
5.7E9                    0.15744938588022406      0.7019604860882938
5.73E9                   0.21735119573185885      0.6852255272854647
5.76E9                   0.2755248921331324       0.6633955307464394
5.79E9                   0.33153776099403204      0.636645264357175
5.82E9                   0.38497468306207616      0.605186224443812
5.85E9                   0.4354411052408367       0.5692647786109264
5.88E9                   0.4825658046165089       0.5291602078836762
5.91E9                   0.5260035373660268       0.48518264146028045
5.94E9                   0.5654376219826055       0.43767081942104025
5.97E9                   0.6005824440094518       0.38698960267981225
6.0E9                    0.6311858171062593       0.33352717093393713
