% Model:              three_layers reality at 0.1mm.mph
% Version:            COMSOL 5.6.0.280
% Date:               Mar 2 2022, 16:25
% Table:              表格 1 - 全局计算 1
% freq (Hz)              real(emw.S11) (1)        imag(emw.S11) (1)
300000000                0.5946702235254101       -0.7868665961216548
330000000                0.5198129624448321       -0.8385392056756648
360000000                0.4405151151682676       -0.8831210122955517
390000000                0.35744375547885404      -0.9202307032474728
420000000                0.2712992015889141       -0.9495490412912668
450000000                0.18280929763868842      -0.97082191654918
480000000                0.09272339550893403      -0.9838628686152199
510000000                0.0018060841523624305    -0.9885550509416611
540000000                -0.08916928368034666     -0.9848526113156213
570000000                -0.1794272136713776      -0.9727814651782503
600000000                -0.26819678466770575     -0.9524394425473295
630000000                -0.3547183957237545      -0.9239957940906666
660000000                -0.43825048239078374     -0.887690047651307
690000000                -0.5180761370539971      -0.8438302129180468
720000000                -0.5935095664755491      -0.7927903389599333
750000000                -0.6639023192034821      -0.7350074367172783
780000000                -0.7286492155786145      -0.6709777864465636
810000000                -0.7871939146145409      -0.6012526579995596
840000000                -0.8390340545103389      -0.5264334796796558
870000000                -0.8837259070408863      -0.4471664992192122
900000000                -0.9208884907865843      -0.3641369877738939
930000000                -0.9502070939687031      -0.2780630444696392
960000000                -0.9714361642078985      -0.189689065367783
990000000                -0.9844015302550919      -0.0997789455665282
1020000000               -0.9890019289040778      -0.0091090874609707
1050000000               -0.9852098191539786      0.08153870879819625
1080000000               -0.9730714749247176      0.1713843948694816
1110000000               -0.9527063569958044      0.25965678561985783
1140000000               -0.9243057742221134      0.3456005547194441
1170000000               -0.8881308532030343      0.42848303912461533
1200000000               -0.8445098443660719      0.507600780104169
1230000000               -0.7938348005224303      0.5822857330796353
1260000000               -0.7365576714237038      0.6519110837420811
1290000000               -0.673185864231072       0.7158966143823934
1320000000               -0.6042773255284213      0.7737135710342667
1350000000               -0.5304352047560781      0.8248889898279539
1380000000               -0.45230216241027216     0.8690094486082288
1410000000               -0.3705543885553775      0.9057242179569385
1440000000               -0.28589539820182813     0.934747793844487
1470000000               -0.19904967029874554     0.9558618019143679
1500000000               -0.1107561959531692      0.9689162710628602
1530000000               -0.021761999877810648    0.9738302810136367
1560000000               0.06718430389260917      0.9705919952479949
1590000000               0.155338863898967        0.9592580965190483
1620000000               0.24196879685568806      0.939952647489596
1650000000               0.3263581970453542       0.9128654035262976
1680000000               0.4078139041992593       0.8782496085126591
1710000000               0.48567098933095887      0.8364193075848573
1740000000               0.559297922635336        0.7877462130846823
1770000000               0.6281013922733625       0.7326561617799576
1800000000               0.6915307475062807       0.6716252024968004
1830000000               0.7490820438990469       0.6051753540352579
1860000000               0.8003016726272592       0.5338700733157766
1890000000               0.8447895597066776       0.4583094736275339
1920000000               0.8822019247329366       0.3791253323153161
1950000000               0.9122535922512811       0.2969759263794437
1980000000               0.9347198521287027       0.2125407336180088
2010000000               0.9494378687784721       0.12651503515258308
2040000000               0.9563076421916122       0.039604453336030826
2070000000               0.955292526879449        -0.04748054404768702
2100000000               0.9464193173203171       -0.1340301471163769
2130000000               0.929777909247057        -0.21934069520278554
2.16E9                   0.9055205429714445       -0.3027201457787837
2.19E9                   0.8738606240881979       -0.3834935207614272
2.22E9                   0.8350710938349697       -0.46100833552320514
2.25E9                   0.7894822844071584       -0.534640004579806
2.28E9                   0.7374791540941097       -0.6037971700583894
2.31E9                   0.6794977886442983       -0.6679268001297182
2.34E9                   0.6160211389840357       -0.7265187778635118
2.37E9                   0.5475741799836176       -0.7791096436961329
2.4E9                    0.4747189407566472       -0.8252853076985383
2.43E9                   0.3980499411305795       -0.8646829353759552
2.46E9                   0.318190275796097        -0.8969925862951129
2.49E9                   0.23578805891659496      -0.921959186093485
2.52E9                   0.15151261235136354      -0.9393849835232949
2.55E9                   0.06604991138784104      -0.9491321517441069
2.58E9                   -0.019902793899720807    -0.9511250130612674
2.61E9                   -0.10564294093697804     -0.9453515167717272
2.64E9                   -0.1904688738415935      -0.9318638522581616
2.67E9                   -0.2736860690849147      -0.9107782505964176
2.7E9                    -0.3546132285271191      -0.8822740834252839
2.73E9                   -0.4325881778726601      -0.8465923546768505
2.76E9                   -0.5069735427228731      -0.8040336487055186
2.79E9                   -0.5771621812123805      -0.7549555724357261
2.82E9                   -0.6425823472434662      -0.6997697154441648
2.85E9                   -0.7027025513917913      -0.638938147915917
2.88E9                   -0.7570360811379953      -0.5729694785161183
2.91E9                   -0.8051451395216405      -0.5024144992127554
2.94E9                   -0.8466445613412477      -0.4278614500543729
2.97E9                   -0.8812050678519715      -0.3499309432536668
3.0E9                    -0.9085560246371998      -0.2692705914755202
3.03E9                   -0.9284876719980775      -0.18654939041420296
3.06E9                   -0.9408528029658987      -0.1024519098762299
3.09E9                   -0.9455678704496006      -0.017672350867702337
3.12E9                   -0.9426135119699218      0.06709147158986668
3.15E9                   -0.9320344876754959      0.1511441591634442
3.18E9                   -0.9139390346137546      0.23379871370994262
3.21E9                   -0.8884976473122995      0.314382414140208
3.24E9                   -0.8559413012762305      0.392242529536607
3.27E9                   -0.8165591418801115      0.4667518144338956
3.3E9                    -0.7706956660597558      0.5373137359884018
3.33E9                   -0.7187474282982956      0.6033673865225507
3.36E9                   -0.6611593057351185      0.664392038696609
3.39E9                   -0.5984203600906349      0.7199113039362475
3.42E9                   -0.5310593368970012      0.7694968576796876
3.45E9                   -0.45963984569859084     0.8127716975986495
3.48E9                   -0.3847552688752791      0.8494129035827879
3.51E9                   -0.3070234515149219      0.8791538717175531
3.54E9                   -0.22708123061563273     0.9017859992489545
3.57E9                   -0.14557886750514318     0.9171598048125095
3.6E9                    -0.06317445206711536     0.9251854779823039
3.63E9                   0.01947165064534744      0.9258328642998116
3.66E9                   0.10170224254904953      0.9191309049775951
3.69E9                   0.18286855997513385      0.9051665626965341
3.72E9                   0.26233531137058747      0.884083275008184
3.75E9                   0.3394854401540366       0.8560789844151486
3.78E9                   0.4137245785494198       0.8214037998034176
3.81E9                   0.48448517042673134      0.780357347979235
3.84E9                   0.5512302560874239       0.7332858754730798
3.87E9                   0.6134569287803864       0.6805791570146238
3.9E9                    0.6706994890838942       0.622667255279374
3.93E9                   0.7225323333571304       0.5600171566569605
3.96E9                   0.768572611373995        0.49312928379320625
3.99E9                   0.808482674110342        0.42253386494604944
4.02E9                   0.8419723091170443       0.34878713007460527
4.05E9                   0.8688007355066483       0.2724673079542487
4.08E9                   0.8887783117179762       0.19417041566074894
4.11E9                   0.9017679022462215       0.11450585561887737
4.14E9                   0.9076858553340266       0.03409185859877895
4.17E9                   0.9065025590898164       -0.04644917268781498
4.2E9                    0.8982425632264942       -0.1264953580916552
4.23E9                   0.8829842722687012       -0.2054300143148874
4.26E9                   0.8608592294882169       -0.2826462606869374
4.29E9                   0.8320510169566817       -0.35755152111413196
4.32E9                   0.7967937961728634       -0.4295718988473156
4.35E9                   0.7553705079092258       -0.49815640844613374
4.38E9                   0.7081107424439189       -0.5627810515598729
4.41E9                   0.6553882855182579       -0.6229527202586955
4.44E9                   0.5976183429179642       -0.6782129061601445
4.47E9                   0.5352544484094395       -0.7281411872725313
4.5E9                    0.4687850646773125       -0.7723584599504769
4.53E9                   0.3987298939542683       -0.8105298811523757
4.56E9                   0.3256359227024307       -0.8423674869295597
4.59E9                   0.2500732318842186       -0.8676324566271809
4.62E9                   0.17263061010397857      -0.8861369982444656
4.65E9                   0.09391100995823276      -0.8977458381946626
4.68E9                   0.014526887659897271     -0.9023773068471604
4.71E9                   -0.06490453803389187     -0.9000040177565745
4.74E9                   -0.14376607759234333     -0.8906531411256738
4.77E9                   -0.22144538865553304     -0.8744062698630493
4.8E9                    -0.2973397971149296      -0.851398870645808
4.83E9                   -0.3708610937105641      -0.8218193060058749
4.86E9                   -0.4414402686141876      -0.7859074106840398
4.89E9                   -0.5085321340048486      -0.7439526093510027
4.92E9                   -0.5716197741515433      -0.696291573695111
4.95E9                   -0.6302187573111857      -0.6433054329459101
4.98E9                   -0.683881045905994       -0.5854165697174886
5.01E9                   -0.7321985507315995      -0.5230850492858424
5.04E9                   -0.7748062903787682      -0.4568047417056357
5.07E9                   -0.8113851358349013      -0.3870992002368031
5.1E9                    -0.8416641387650146      -0.31451735486106674
5.13E9                   -0.8654224554879696      -0.23962906667775208
5.16E9                   -0.8824908824386002      -0.16302057122358082
5.19E9                   -0.8927530107739893      -0.0852898230244114
5.22E9                   -0.8961459905830975      -0.00704174786773766
5.25E9                   -0.8926608773185811      0.07111658187501975
5.28E9                   -0.8823425252377968      0.14858081200962828
5.31E9                   -0.8652890018600058      0.22475415003391466
5.34E9                   -0.8416505219772621      0.2990521114077966
5.37E9                   -0.811627929486493       0.37090709537478483
5.4E9                    -0.7754707774703308      0.43977273668816763
5.43E9                   -0.7334750633664255      0.505128006518645
5.46E9                   -0.6859806666830978      0.5664810589855319
5.49E9                   -0.6333685181684987      0.6233728313282457
5.52E9                   -0.5760575102035878      0.6753804042441033
5.55E9                   -0.5145011451635354      0.7221201174561437
5.58E9                   -0.4491839145921702      0.7632504194457406
5.61E9                   -0.38061740753383094     0.798474414181905
5.64E9                   -0.3093361600747637      0.8275420553824342
5.67E9                   -0.23589327817115519     0.8502519336309128
5.7E9                    -0.16085588919025184     0.8664526067450125
5.73E9                   -0.08480049827636993     0.8760434415475729
5.76E9                   -0.008308336030863296    0.8789749639086882
5.79E9                   0.0680392230827641       0.8752487459720714
5.82E9                   0.14366511635388443      0.8649168824910403
5.85E9                   0.2180008991782005       0.8480811123315682
5.88E9                   0.29049090410708267      0.8248916260400838
5.91E9                   0.36059626281930424      0.7955455758174721
5.94E9                   0.42779879227969286      0.7602852836891931
5.97E9                   0.49160472840040265      0.7193961356428522
6.0E9                    0.5515482735494349       0.6732041543579504
