% Model:              three_layers reality at 0.1mm.mph
% Version:            COMSOL 5.6.0.280
% Date:               Mar 8 2022, 14:45
% Table:              表格 1 - 全局计算 1
% freq (Hz)              real(emw.S11) (1)        imag(emw.S11) (1)
300000000                0.45801503711902375      -0.8422391991112456
330000000                0.3663068847723711       -0.8843001189338571
360000000                0.27094536854813306      -0.9164910844546723
390000000                0.17296698248712233      -0.9385111429059276
420000000                0.07343475414357546      -0.9501655812691014
450000000                -0.026573126427306984    -0.9513689480984738
480000000                -0.12597496719639203     -0.9421466710424071
510000000                -0.2236973596354681      -0.9226352837416562
540000000                -0.3186869296156785      -0.8930812864789502
570000000                -0.40992189986768673     -0.8538386757774168
600000000                -0.4964233173348045      -0.8053651896184308
630000000                -0.5772658059690023      -0.7482173265408689
660000000                -0.6515877140751277      -0.6830442085307148
690000000                -0.7186005343379633      -0.6105803691122536
720000000                -0.7775974844150761      -0.5316375592371527
750000000                -0.8279611477514037      -0.44709567359788854
780000000                -0.8691700858938604      -0.3578929097250426
810000000                -0.9008043468891636      -0.265015280247832
840000000                -0.9225498084771844      -0.16948560553461028
870000000                -0.9342013091290564      -0.07235211947631152
900000000                -0.9356645353980465      0.02532317522783438
930000000                -0.9269566494160133      0.12247626399396581
960000000                -0.908205655927647       0.21805285056631588
990000000                -0.8796485237463649      0.31101992349264973
1020000000               -0.8416280916217957      0.4003770249320411
1050000000               -0.7945888030040278      0.48516709273878966
1080000000               -0.7390713280127678      0.5644867533813888
1110000000               -0.6757061437330688      0.6374959513811516
1140000000               -0.6052061556661649      0.7034268101395539
1170000000               -0.528358453590981       0.7615916297796821
1200000000               -0.4460153041766284      0.8113899390826864
1230000000               -0.3590844901679295      0.8523145310872478
1260000000               -0.2685191121893535      0.8839564248003904
1290000000               -0.17530697337577428     0.9060087090697378
1320000000               -0.08045967017786122     0.9182692381606095
1350000000               0.014998486113868205     0.9206421623181392
1380000000               0.1100415929152499       0.9131382901970162
1410000000               0.2036532022199225       0.8958742930975045
1440000000               0.2948371693216396       0.8690707738054023
1470000000               0.38262818909584895      0.8330492349021084
1500000000               0.46610191019280767      0.7882279927852673
1530000000               0.5443845239900992       0.7351170942560095
1560000000               0.6166617327134489       0.6743123021127265
1590000000               0.6821870094265098       0.6064882249557697
1620000000               0.7402890716576774       0.5323906739741576
1650000000               0.7903784999827587       0.45282833621974394
1680000000               0.8319534430366322       0.3686638592862096
1710000000               0.8646043608178258       0.28080444685102424
1740000000               0.8880177688745925       0.19019206795928956
1770000000               0.9019789569800921       0.09779338507865157
1800000000               0.9063736669386387       0.004589507228166268
1830000000               0.9011887253804339       -0.0884343255551924
1860000000               0.8865116386333161       -0.18029902128630515
1890000000               0.8625291680380404       -0.2700417762375417
1920000000               0.8295249152123564       -0.35672597778285314
1950000000               0.787875957713024        -0.43945077770066576
1980000000               0.7380485858489803       -0.5173602521050379
2010000000               0.6805932003389341       -0.5896520760303329
2040000000               0.6161384365081102       -0.655585656409175
2070000000               0.5453845809902632       -0.714489687758427
2100000000               0.4690963364077705       -0.7657691196310292
2130000000               0.38809496061496046      -0.808911550157764
2.16E9                   0.3032497500422586       -0.8434930743303961
2.19E9                   0.21546874530562424      -0.8691835934617584
2.22E9                   0.12568842296624824      -0.8857514886585351
2.25E9                   0.03486206180797424      -0.8930673193322156
2.28E9                   -0.05605341965923075     -0.8911058104605631
2.31E9                   -0.14611184984353506     -0.8799449777525356
2.34E9                   -0.2343921001266975      -0.8597612311543682
2.37E9                   -0.3200098615378088      -0.8308202857613225
2.4E9                    -0.4021243614309796      -0.7934657846255967
2.43E9                   -0.47993940534748564     -0.7481094515529236
2.46E9                   -0.5527014011862658      -0.6952262584612962
2.49E9                   -0.6196989621485348      -0.6353549763623875
2.52E9                   -0.6802673297390657      -0.5691009745621374
2.55E9                   -0.7337974666113625      -0.4971371615327808
2.58E9                   -0.7797471984648809      -0.4202007424525485
2.61E9                   -0.8176515981308383      -0.3390858937163663
2.64E9                   -0.8471310347637839      -0.2546337854478599
2.67E9                   -0.8678965804649723      -0.16772145648395398
2.7E9                    -0.8797531438749678      -0.07925053403947488
2.73E9                   -0.8826008512374843      0.009863734102197319
2.76E9                   -0.8764350941816285      0.09870299130782305
2.79E9                   -0.8613455108146744      0.18635582400490025
2.82E9                   -0.8375140471625344      0.27192738106006725
2.85E9                   -0.8052121748145753      0.3545485739097006
2.88E9                   -0.7647973069077927      0.43338484521727727
2.91E9                   -0.7167084440397956      0.5076444715284361
2.94E9                   -0.6614610833652809      0.5765863505731187
2.97E9                   -0.5996414315271861      0.6395272156085913
3.0E9                    -0.5318999714055673      0.6958482168756662
3.03E9                   -0.4589444422261905      0.7450008118502595
3.06E9                   -0.3815323013164409      0.7865119108584091
3.09E9                   -0.3004627432961766      0.8199882317228152
3.12E9                   -0.21656835820226636     0.8451198260580416
3.15E9                   -0.13070651374976255     0.8616827498719637
3.18E9                   -0.04375054818344584     0.8695408616704227
3.21E9                   0.043419141103787064     0.8686467413344682
3.24E9                   0.12992403136882072      0.8590417316016966
3.27E9                   0.21489635409005425      0.8408551101396653
3.3E9                    0.29748784840722814      0.8143024031864615
3.33E9                   0.376878320380245        0.7796828517636816
3.36E9                   0.45228394005515615      0.7373760392566899
3.39E9                   0.5229652041526824       0.6878376865499556
3.42E9                   0.5882344826614716       0.6315946202855427
3.45E9                   0.6474630533014406       0.5692389243559993
3.48E9                   0.7000875110466094       0.5014212973406322
3.51E9                   0.7456154240981662       0.4288436619305885
3.54E9                   0.7836300989875551       0.3522511068129236
3.57E9                   0.8137943219084843       0.27242328451075964
3.6E9                    0.8358529662305672       0.1901654336952675
3.63E9                   0.8496343983114585       0.10629923237071409
3.66E9                   0.8550506709185304       0.021653709609235645
3.69E9                   0.852096556613304        -0.06294355656763348
3.72E9                   0.8408475331442067       -0.14667474835766336
3.75E9                   0.8214568838608447       -0.22873945396225592
3.78E9                   0.7941521182519797       -0.3083615282516959
3.81E9                   0.7592309505945298       -0.38479510969390396
3.84E9                   0.7170570908544047       -0.45732981757111396
3.87E9                   0.6680560842076976       -0.5252952535593057
3.9E9                    0.6127113658453599       -0.5880650304625302
3.93E9                   0.5515605733635548       -0.6450606134247682
3.96E9                   0.4851920042996872       -0.6957552502765766
3.99E9                   0.4142409688138674       -0.7396781737458266
4.02E9                   0.3393857165501832       -0.7764191001043508
4.05E9                   0.26134263951338305      -0.8056328751578307
4.08E9                   0.18086056051578261      -0.8270439842670408
4.11E9                   0.09871407103368952      -0.840450585215558
4.14E9                   0.015696034685046635     -0.8457277477400162
4.17E9                   -0.0673905166599658      -0.8428296716753897
4.2E9                    -0.14974081706879794     -0.8317907729326367
4.23E9                   -0.23055686378956894     -0.8127256389313049
4.26E9                   -0.3090557635990462      -0.7858279371657984
4.29E9                   -0.3844777874429368      -0.7513684000766591
4.32E9                   -0.456094061125702       -0.7096920077165675
4.35E9                   -0.5232138659530491      -0.6612144593949856
4.38E9                   -0.5851915390567745      -0.6064179851636533
4.41E9                   -0.6414329524997392      -0.5458465151622529
4.44E9                   -0.6914015243109977      -0.4801002104832118
4.47E9                   -0.7346236867759804      -0.40982936560577077
4.5E9                    -0.7706937179881084      -0.33572771492331793
4.53E9                   -0.799277837020796       -0.2585252071272347
4.56E9                   -0.8201174724292107      -0.17898034358197135
4.59E9                   -0.8330316366613192      -0.09787220457595933
4.62E9                   -0.8379183729468838      -0.01599230504526661
4.65E9                   -0.8347552818374105      0.06586357600012502
4.68E9                   -0.823599174041755       0.14690346412760175
4.71E9                   -0.8045849238262672      0.2263470617256597
4.74E9                   -0.7779236026488594      0.30343337273690796
4.77E9                   -0.7438999517895181      0.37742806628512354
4.8E9                    -0.7028692127455953      0.447630580932207
4.83E9                   -0.6552532926012562      0.5133809552113769
4.86E9                   -0.6015362191480387      0.5740663267940582
4.89E9                   -0.5422588507611975      0.6291269889927148
4.92E9                   -0.4780128497050024      0.678061850216974
4.95E9                   -0.40943399321389773     0.7204331266095911
4.98E9                   -0.33719496717769737     0.755870117670983
5.01E9                   -0.26199784485561617     0.784071967832423
5.04E9                   -0.18456648291281824     0.8048093950278452
5.07E9                   -0.10563905835014467     0.8179254559814425
5.1E9                    -0.025960917691976705    0.8233354971260636
5.13E9                   0.05372217966438129      0.8210264855794082
5.16E9                   0.13267044684852944      0.8110559052355351
5.19E9                   0.21015619025575794      0.7935503331034596
5.22E9                   0.2854697968346946       0.7687037016788727
5.25E9                   0.3579256663842516       0.7367751512301745
5.28E9                   0.42686805768078745      0.698086333862665
5.31E9                   0.49167670488835785      0.6530180759375641
5.34E9                   0.5517720069510101       0.6020064172858723
5.37E9                   0.6066196280227776       0.5455381671841589
5.4E9                    0.6557344537267064       0.4841461862205438
5.43E9                   0.6986839729057778       0.4184045886304623
5.46E9                   0.7350912411214303       0.34892397352305693
5.49E9                   0.7646375994468674       0.276346677215961
5.52E9                   0.7870652719051177       0.20134193854418492
5.55E9                   0.8021798722278298       0.1246008146725379
5.58E9                   0.8098527466690926       0.046830686001370574
5.61E9                   0.8100229903532465       -0.03125076045409843
5.64E9                   0.8026989181252433       -0.10892209220238971
5.67E9                   0.7879587601076055       -0.18546515099902042
5.7E9                    0.7659503968420243       -0.26017233631325204
5.73E9                   0.7368900495853297       -0.3323538791297919
5.76E9                   0.70105997802305         -0.40134481826168183
5.79E9                   0.6588053646058732       -0.46651145994301263
5.82E9                   0.6105306266891248       -0.5272572340792109
5.85E9                   0.5566953640926741       -0.5830279996941798
5.88E9                   0.49781004063629997      -0.6333169320352208
5.91E9                   0.4344313740518315       -0.6776691130106633
5.94E9                   0.3671573303536441       -0.7156858647827564
5.97E9                   0.2966216122028783       -0.7470287641240912
6.0E9                    0.22348758197849605      -0.7714231983374865
