% Model:              three_layers reality at 0.1mm.mph
% Version:            COMSOL 5.6.0.280
% Date:               Mar 6 2022, 20:43
% Table:              表格 1 - 全局计算 1
% freq (Hz)              real(emw.S11) (1)        imag(emw.S11) (1)
300000000                0.6038547501045219       -0.7375143989036093
330000000                0.5372286487004264       -0.7865473513848951
360000000                0.4667499134817972       -0.8296447120661828
390000000                0.39293026377700574      -0.866503030845896
420000000                0.31630840681527916      -0.8968625409105677
450000000                0.23744556616294865      -0.9205098008923255
480000000                0.15692095646608273      -0.93727980076716
510000000                0.07532720243309683      -0.947057576113134
540000000                -0.006734290048238379    -0.949779358230442
570000000                -0.08865799130374637     -0.9454332764368639
600000000                -0.16983891182333632     -0.9340596240067737
630000000                -0.24967724523827198     -0.9157506963937522
660000000                -0.32758296051650454     -0.8906502100996758
690000000                -0.4029803133717378      -0.8589523110279524
720000000                -0.4753122440291049      -0.8209001829679198
750000000                -0.5440446298229235      -0.7767842686596743
780000000                -0.6086703607354255      -0.7269401183331136
810000000                -0.6687132067665305      -0.6717458830616281
840000000                -0.7237314469745004      -0.6116194731514971
870000000                -0.7733212321268251      -0.5470154038154827
900000000                -0.817119654032963       -0.4784213534200243
930000000                -0.8548074971091485      -0.4063544618749149
960000000                -0.8861116505377462      -0.3313573982361983
990000000                -0.9108071611974273      -0.25399422987815895
1020000000               -0.9287189114518748      -0.17484612578484718
1050000000               -0.9397229082603981      -0.09450692914009062
1080000000               -0.9437471737521297      -0.013578634656722375
1110000000               -0.9407722305485354      0.0673331924678674
1140000000               -0.9308311787226261      0.14762401921918436
1170000000               -0.9140093646165717      0.22669493205704844
1200000000               -0.8904436453307378      0.30395717155406016
1230000000               -0.8603212560001771      0.37883657869920473
1260000000               -0.823878290398409       0.45077791724958455
1290000000               -0.7813978085089017      0.519249038307175
1320000000               -0.733207587874          0.5837448544995232
1350000000               -0.6796775382659783      0.6437910933118123
1380000000               -0.6212168019119373      0.6989478010290053
1410000000               -0.5582705639243765      0.7488125710973227
1440000000               -0.4913165996929305      0.7930234733005932
1470000000               -0.4208615878545269      0.8312616628071204
1500000000               -0.3474372189673883      0.8632536510232557
1530000000               -0.27159613148481715     0.8887732229812398
1560000000               -0.19390770733804744     0.9076429891645434
1590000000               -0.11495376042240331     0.919735562547187
1620000000               -0.0353241513034245      0.9249743547982014
1650000000               0.044387638021116164     0.9233339884696433
1680000000               0.12358893588987457      0.9148403250554029
1710000000               0.20169228617362017      0.8995701116599634
1740000000               0.27811979452367697      0.8776502517928915
1770000000               0.3523073840283136       0.8492567085130145
1800000000               0.42370892984773045      0.8146130506960289
1830000000               0.49180024359670593      0.773988655616949
1860000000               0.5560828798028972       0.7276965832584739
1890000000               0.6160877380905337       0.6760911400003113
1920000000               0.671378436855937        0.619565151119284
1950000000               0.7215544357880049       0.5585469634326665
1980000000               0.7662538866657109       0.49349720102208167
2010000000               0.8051561940356337       0.4249052982880243
2040000000               0.8379842695057331       0.35328583591547463
2070000000               0.8645064657347117       0.27917470620166174
2100000000               0.8845381785989276       0.20312513483354883
2130000000               0.8979431082974675       0.12570358649697264
2.16E9                   0.904634172311927        0.047485581421755074
2.19E9                   0.9045740646397733       -0.030948550730282378
2.22E9                   0.8977754560726958       -0.1090179540353053
2.25E9                   0.8843008290601134       -0.18614554069515407
2.28E9                   0.8642619382094378       -0.2617622680457604
2.31E9                   0.8378188863388708       -0.3353113614377985
2.34E9                   0.8051788119937658       -0.4062524337532944
2.37E9                   0.76659420313771         -0.47406544241313847
2.4E9                    0.7223608802959319       -0.53825443145899
2.43E9                   0.6728157118778118       -0.5983510375410817
2.46E9                   0.6183341114358097       -0.6539177793883151
2.49E9                   0.5593273241295446       -0.7045511654523844
2.52E9                   0.4962394720419052       -0.7498846287264631
2.55E9                   0.42954432758935346      -0.7895912540381922
2.58E9                   0.35974181489623036      -0.8233862388118443
2.61E9                   0.28735427158535337      -0.8510290339419175
2.64E9                   0.21292251913121804      -0.8723251320845473
2.67E9                   0.13700178918096081      -0.887127489352375
2.7E9                    0.06015754630517112      -0.895337576232953
2.73E9                   -0.017038758178692073    -0.8969060567354629
2.76E9                   -0.09401397018987101     -0.8918330953739839
2.79E9                   -0.17019752409763245     -0.8801682918665432
2.82E9                   -0.24502571061325285     -0.8620102445464326
2.85E9                   -0.31794589012542285     -0.837505745345257
2.88E9                   -0.3884206200622763      -0.8068486116557253
2.91E9                   -0.4559316648492302      -0.7702781631251221
2.94E9                   -0.5199838575328442      -0.7280773543300628
2.97E9                   -0.5801087829993654      -0.6805705771398158
3.0E9                    -0.6358682537817569      -0.6281211495162728
3.03E9                   -0.6868575512238189      -0.5711285100431184
3.06E9                   -0.7327084063385035      -0.5100251402155046
3.09E9                   -0.7730916969327319      -0.44527323881386477
3.12E9                   -0.8077198399641559      -0.3773611747513543
3.15E9                   -0.8363488604998681      -0.3067997469013237
3.18E9                   -0.8587801216165007      -0.23411828073295401
3.21E9                   -0.8748617023238133      -0.1598605931267279
3.24E9                   -0.8844894136842074      -0.08458085758384698
3.27E9                   -0.8876074463375002      -0.00883940273889899
3.3E9                    -0.8842086456791372      0.06680152255208087
3.33E9                   -0.8743344139875652      0.14178198423659089
3.36E9                   -0.8580742417374462      0.21554856508414108
3.39E9                   -0.8355648732288424      0.28755850099617636
3.42E9                   -0.8069891144856988      0.35728371952991483
3.45E9                   -0.7725742941788587      0.424214749282527
3.48E9                   -0.7325903910268972      0.4878644699529286
3.51E9                   -0.6873478440186127      0.5477716738072735
3.54E9                   -0.6371950644397529      0.6035044111075196
3.57E9                   -0.5825156715967238      0.6546630936308208
3.6E9                    -0.5237254766116681      0.7008833329549635
3.63E9                   -0.46126924110082196     0.7418384927914217
3.66E9                   -0.3956172393502986      0.7772419379060841
3.69E9                   -0.3272616539273119      0.8068489654724914
3.72E9                   -0.2567128354888199      0.8304584080989706
3.75E9                   -0.18449545783474142     0.8479139011062558
3.78E9                   -0.11114459914703173     0.8591048099176657
3.81E9                   -0.037201780089433534    0.8639668165790747
3.84E9                   0.036789011791280225     0.8624821676848393
3.87E9                   0.11028528345296458      0.8546795887198636
3.9E9                    0.18274995796898477      0.8406338718965345
3.93E9                   0.25365523296683395      0.8204651455358425
3.96E9                   0.3224863545166681       0.7943378329715305
3.99E9                   0.3887452853639413       0.7624593084701816
4.02E9                   0.45195424605048395      0.7250782574494086
4.05E9                   0.5116591060640859       0.6824827491161246
4.08E9                   0.5674326006977645       0.6349980318618141
4.11E9                   0.6188773488683822       0.5829840650117739
4.14E9                   0.6656286477984207       0.5268328042694111
4.17E9                   0.7073570224327153       0.46696526179459075
4.2E9                    0.7437705104646508       0.4038283646235896
4.23E9                   0.7746166672758996       0.33789163691054463
4.26E9                   0.7996842785294537       0.26964373221829147
4.29E9                   0.8188047711429729       0.1995888420207508
4.32E9                   0.831853315732505        0.1282430060156565
4.35E9                   0.8387496152771711       0.05613034951527434
4.38E9                   0.8394583761094666       -0.016220727272825003
4.41E9                   0.8339894584642196       -0.08828138290161397
4.44E9                   0.8223977052077228       -0.1595261657266178
4.47E9                   0.8047824490743665       -0.22943681612966513
4.5E9                    0.7812867008296188       -0.29750601320869213
4.53E9                   0.7520960231739946       -0.3632410390030325
4.56E9                   0.7174370977951021       -0.42616733340906204
4.59E9                   0.6775759956482226       -0.48583191353513694
4.62E9                   0.6328161631576752       -0.5418066322382329
4.65E9                   0.5834961394595937       -0.5936912520577515
4.68E9                   0.5299870218019301       -0.6411163126271555
4.71E9                   0.4726896978296415       -0.6837457715553852
4.74E9                   0.4120318643814564       -0.7212794007981573
4.77E9                   0.348464853264429        -0.7534549218990569
4.8E9                    0.2824602850976831       -0.7800498646606642
4.83E9                   0.21450657360736367      -0.8008831344831784
4.86E9                   0.1451053045244727       -0.8158162745422066
4.89E9                   0.07476751536556457      -0.8247544105184229
4.92E9                   0.004009904863453606     -0.8276468678485354
4.95E9                   -0.06664899741903377     -0.8244874547449625
4.98E9                   -0.13669266947586625     -0.8153144080283239
5.01E9                   -0.20561041125685728     -0.8002100029536754
5.04E9                   -0.2729011038721409      -0.7792998322532574
5.07E9                   -0.33807688409631914     -0.7527517631822414
5.1E9                    -0.4006667071284829      -0.7207745840522108
5.13E9                   -0.4602197730098494      -0.6836163533927379
5.16E9                   -0.5163087944182801      -0.6415624653927979
5.19E9                   -0.5685330844788914      -0.5949334453169545
5.22E9                   -0.6165214431763045      -0.5440824888387155
5.25E9                   -0.6599348199647883      -0.48939276081863864
5.28E9                   -0.6984687296193322      -0.43127447226595295
5.31E9                   -0.7318553993928264      -0.3701617585809579
5.34E9                   -0.7598656287078582      -0.30650938648185266
5.37E9                   -0.7823103475511093      -0.24078931962647246
5.4E9                    -0.7990418649594441      -0.17348717354866394
5.43E9                   -0.8099548033734879      -0.10509858909235348
5.46E9                   -0.8149867173129812      -0.03612555133895327
5.49E9                   -0.8141183959540028      0.032927320795078756
5.52E9                   -0.8073738495076306      0.10155649015321691
5.55E9                   -0.7948199794802004      0.16926319759307415
5.58E9                   -0.7765659336687619      0.23555711354760353
5.61E9                   -0.7527621483022001      0.29995991794143706
5.64E9                   -0.7235990822641292      0.3620087801690091
5.67E9                   -0.6893056518779075      0.4212597097458118
5.7E9                    -0.6501473791548995      0.47729074822203477
5.73E9                   -0.60642427138572        0.529704974342059
5.76E9                   -0.5584684545109416      0.5781332978427743
5.79E9                   -0.5066415856714489      0.6222370223027669
5.82E9                   -0.45133207087268873     0.6617101628596289
5.85E9                   -0.39295211206837294     0.6962815087852676
5.88E9                   -0.3319346054425353      0.7257164228966658
5.91E9                   -0.26872991115090844     0.7498183696486211
5.94E9                   -0.20380251487239312     0.7684301630411721
5.97E9                   -0.13762760335618013     0.7814349252812904
6.0E9                    -0.07068757842286609     0.7887567484084745
