% Model:              three_layers reality at 0.1mm.mph
% Version:            COMSOL 5.6.0.280
% Date:               Mar 10 2022, 16:09
% Table:              表格 1 - 全局计算 1
% freq (Hz)              real(emw.S11) (1)        imag(emw.S11) (1)
300000000                0.4668963000003272       -0.7691280678840234
330000000                0.38819915174267283      -0.8080670041892536
360000000                0.3065624754992481       -0.8392147195591918
390000000                0.22270308561175478      -0.8623527614530535
420000000                0.13736462922107615      -0.8773274134931812
450000000                0.0513087712838729       -0.8840539404166528
480000000                -0.034693386706609174    -0.8825192231089943
510000000                -0.11986966030301308     -0.8727830812349842
540000000                -0.20345489742102052     -0.8549784749396023
570000000                -0.2846988258379544      -0.8293107165221116
600000000                -0.3628735969036645      -0.7960557885665275
630000000                -0.43728097994804926     -0.7555578461717385
660000000                -0.5072591598869753      -0.7082259708730692
690000000                -0.5721890889069722      -0.6545302396251452
720000000                -0.6315003442740998      -0.5949971708131666
750000000                -0.6846764466994821      -0.5302046100838561
780000000                -0.731259597382001       -0.4607761203113774
810000000                -0.7708547965999856      -0.387374941974031
840000000                -0.8031333119799963      -0.31069759255094387
870000000                -0.8278354708403747      -0.2314671748515704
900000000                -0.8447727572636708      -0.15042646604567086
930000000                -0.8538292014410619      -0.068330859672774
960000000                -0.8549620557357264      0.014058766708356752
990000000                -0.8482017589763899      0.09598318611098877
1020000000               -0.8336511974033874      0.1766918878506989
1050000000               -0.8114842776407856      0.2554500051470387
1080000000               -0.781943833574219       0.33154503779453187
1110000000               -0.7453388954407858      0.404293306313138
1140000000               -0.7020413552581127      0.47304607745396254
1170000000               -0.6524820683462464      0.5371953053373777
1200000000               -0.5971464354609667      0.596178937351489
1230000000               -0.5365695147275341      0.6494857388505332
1260000000               -0.47133071614958644     0.6966595965052368
1290000000               -0.40204813488583313     0.7373032657682085
1320000000               -0.32937258182590945     0.7710815342048418
1350000000               -0.2539813721456034      0.7977237784151162
1380000000               -0.17657193354346357     0.8170258987600921
1410000000               -0.09785529662645694     0.8288516222787603
1440000000               -0.018549529802367817    0.833133170478482
1470000000               0.06062681965058854      0.829871294786297
1500000000               0.1389612177636538       0.8191346883754269
1530000000               0.2157535106938573       0.8010587888236071
1560000000               0.29032210976882755      0.7758439914408851
1590000000               0.36200994116025265      0.7437532982822536
1620000000               0.4301901098977444       0.7051094325443055
1650000000               0.49427123149737984      0.6602914524524803
1680000000               0.5537023884180773       0.6097309027770579
1710000000               0.6079776731607268       0.5539075454929264
1740000000               0.6566402841700921       0.4933447143504228
1770000000               0.6992861457505466       0.42860434074010123
1800000000               0.7355670285175485       0.360281700285618
1830000000               0.765193152268747        0.2889999313407932
1860000000               0.7879352591098407       0.215404377579101
1890000000               0.8036261508754627       0.14015680721200496
1920000000               0.8121616915990995       0.06392956070694232
1950000000               0.8135012829808368       -0.012600322881851773
1980000000               0.8076678284885027       -0.08875695464194851
2010000000               0.7947472096196937       -0.1638713799564222
2040000000               0.7748873050849959       -0.23728726919288612
2070000000               0.7482965881920638       -0.30836650290005213
2100000000               0.715242335246418        -0.37649466436260987
2130000000               0.6760484603881936       -0.44108648501635594
2.16E9                   0.6310929470573875       -0.5015913240578276
2.19E9                   0.5808047572830921       -0.5574987839830519
2.22E9                   0.5256599574840849       -0.6083445278883822
2.25E9                   0.4661766286829856       -0.6537162007863083
2.28E9                   0.40290803762881444      -0.6932589912959527
2.31E9                   0.3364337591692511       -0.7266798196991149
2.34E9                   0.2673492151376207       -0.7537486860393031
2.37E9                   0.19625537797379203      -0.7742959727240832
2.4E9                    0.12375139000657304      -0.788206005366664
2.43E9                   0.05043227722278232      -0.7954094587432361
2.46E9                   -0.02310861897098846     -0.7958784414899436
2.49E9                   -0.09627572999416252     -0.7896267312976365
2.52E9                   -0.16846980305676454     -0.776714460092181
2.55E9                   -0.23909088361414296     -0.7572541938283883
2.58E9                   -0.30754507179628005     -0.731415379469014
2.61E9                   -0.3732530121400407      -0.6994257561628785
2.64E9                   -0.43565825398560715     -0.6615699139821812
2.67E9                   -0.4942344855079521      -0.6181859093253095
2.7E9                    -0.5484914074514714      -0.5696608412109694
2.73E9                   -0.5979794077553301      -0.516425992004473
2.76E9                   -0.6422933018864582      -0.4589518386944674
2.79E9                   -0.681075365696487       -0.3977430482363614
2.82E9                   -0.7140178116972596      -0.333333476382657
2.85E9                   -0.740864793110512       -0.2662811567312288
2.88E9                   -0.7614139743365474      -0.1971632650372643
2.91E9                   -0.7755176800808132      -0.12657105337966287
2.94E9                   -0.7830836221667961      -0.05510476109970635
2.97E9                   -0.7840751983694662      0.01663147998305695
3.0E9                    -0.7785113576770435      0.08803471999669692
3.03E9                   -0.7664660293356136      0.15850821324502434
3.06E9                   -0.7480671173948705      0.22746635253720388
3.09E9                   -0.7234950676015958      0.2943394783411388
3.12E9                   -0.6929810188102021      0.3585785252934759
3.15E9                   -0.6568045560300416      0.4196594704772341
3.18E9                   -0.6152910862939305      0.47708755088880256
3.21E9                   -0.568808861173604       0.5304012216200386
3.24E9                   -0.5177656704302518      0.5791758306933827
3.27E9                   -0.46260523014515886     0.6230269899705836
3.3E9                    -0.40380328579448793     0.6616136234999619
3.33E9                   -0.3418634474927587      0.6946406736475632
3.36E9                   -0.2773127721549914      0.7218614414508318
3.39E9                   -0.21069710751316936     0.7430795308264333
3.42E9                   -0.14257621732202638     0.7581503577924731
3.45E9                   -0.07351871710817814     0.7669821776221566
3.48E9                   -0.004096865577797893    0.7695365777220182
3.51E9                   0.06511872202063244      0.7658283851014562
3.54E9                   0.13356434924732738      0.7559249479399488
3.57E9                   0.20068839223857113      0.7399447724655864
3.6E9                    0.2659562091552049       0.7180555282067317
3.63E9                   0.3288546833420952       0.6904714721077334
3.66E9                   0.38889629394564235      0.6574503778246
3.69E9                   0.44562263557647097      0.6192900839531319
3.72E9                   0.49860734229158443      0.5763247906497666
3.75E9                   0.5474584049872558       0.528921240094119
3.78E9                   0.5918199046891017       0.47747491660808117
3.81E9                   0.6313732209516563       0.42240639832493826
3.84E9                   0.6658378190366762       0.36415797763297747
3.87E9                   0.6949717671865518       0.3031906311606867
3.9E9                    0.7185721709263349       0.23998135369341467
3.93E9                   0.7364757122493029       0.17502078088039463
3.96E9                   0.7485594324142263       0.10881093585646161
3.99E9                   0.7547418010094248       0.0418628777114186
4.02E9                   0.7549839960327728       -0.025305970078555864
4.05E9                   0.7492912167973778       -0.09217497095837857
4.08E9                   0.7377137954876389       -0.158223960962502
4.11E9                   0.7203478778776774       -0.22293740864651662
4.14E9                   0.6973355014287634       -0.2858088975798302
4.17E9                   0.6688639869212516       -0.3463457321280974
4.2E9                    0.6351646506465137       -0.40407346785164067
4.23E9                   0.5965109151346525       -0.4585402076541262
4.26E9                   0.5532159342404196       -0.5093205654928747
4.29E9                   0.505629850917777        -0.5560192615629848
4.32E9                   0.45413678098470034      -0.598274359301081
4.35E9                   0.39915157775909305      -0.6357601762424809
4.38E9                   0.3411163960009198       -0.6681898977018952
4.41E9                   0.2804970508013293       -0.6953179019904593
4.44E9                   0.21777916235167094      -0.7169417800217064
4.47E9                   0.15346408853016413      -0.7329040108954905
4.5E9                    0.08806466784358663      -0.7430932443818636
4.53E9                   0.02210081809618494      -0.7474451428930724
4.56E9                   -0.043904943887554816    -0.7459427479003465
4.59E9                   -0.10943198307340474     -0.7386163562410437
4.62E9                   -0.17396594570874432     -0.7255429171599709
4.65E9                   -0.23700300379270872     -0.7068449868954114
4.68E9                   -0.29805389125805093     -0.6826892982039278
4.71E9                   -0.3566477079600068      -0.6532850104574965
4.74E9                   -0.41233549799267655     -0.6188816967384945
4.77E9                   -0.464693629013898       -0.5797670985985305
4.8E9                    -0.5133269997112907      -0.5362646452970755
4.83E9                   -0.5578720809141129      -0.488730706361301
4.86E9                   -0.5979997595265235      -0.43755153718522916
4.89E9                   -0.633417917618624       -0.38313989252747815
4.92E9                   -0.6638736556269956      -0.3259313181974358
4.95E9                   -0.689155067412003       -0.26638017580383816
4.98E9                   -0.7090924967188977      -0.20495549666580704
5.01E9                   -0.7235592447491572      -0.14213678844044267
5.04E9                   -0.7324717490726669      -0.07840992465097199
5.07E9                   -0.7357893049164531      -0.014263229717969575
5.1E9                    -0.7335134391686015      0.04981616983293385
5.13E9                   -0.7256870621002103      0.11334571676995642
5.16E9                   -0.7123935020279483      0.1758505683918554
5.19E9                   -0.6937554738598994      0.23686660999700107
5.22E9                   -0.6699339596355428      0.2959434340017985
5.25E9                   -0.6411269176509621      0.3526473376048685
5.28E9                   -0.6075677173431219      0.40656431580705094
5.31E9                   -0.5695232330080712      0.4573029544864571
5.34E9                   -0.5272916050725035      0.5044970969122983
5.37E9                   -0.48119975577838797     0.5478081828379766
5.4E9                    -0.4316007889732856      0.5869272286330355
5.43E9                   -0.37887139377505297     0.6215764957358152
5.46E9                   -0.3234093180981235      0.6515109490333362
5.49E9                   -0.2656309062838971      0.6765196185926952
5.52E9                   -0.20596863243187685     0.6964269494316044
5.55E9                   -0.14486852513226386     0.7110941693346078
5.58E9                   -0.08278737550089375     0.7204206420209955
5.61E9                   -0.02018964591518149     0.724345116749466
5.64E9                   0.04245595420874065      0.7228467460530781
5.67E9                   0.10468019477725417      0.7159457292391694
5.7E9                    0.166017253716403        0.703703458346927
5.73E9                   0.2260086931665306       0.6862220987307807
5.76E9                   0.2842073097631676       0.663643619170846
5.79E9                   0.3401807190580277       0.6361483697465107
5.82E9                   0.3935146126427608       0.6039533537971196
5.85E9                   0.44381571675057985      0.5673103294884813
5.88E9                   0.49071454094173306      0.5265038136301435
5.91E9                   0.5338680099707832       0.4818489802665008
5.94E9                   0.5729620283589494       0.4336893884568537
5.97E9                   0.6077139643196436       0.3823944579428049
6.0E9                    0.6378749870903868       0.32835663341912164
