% Model:              three_layers reality at 0.1mm.mph
% Version:            COMSOL 5.6.0.280
% Date:               Feb 25 2022, 16:27
% Table:              表格 1 - 全局计算 1
% freq (Hz)              real(emw.S11) (1)        imag(emw.S11) (1)
300000000                0.5426191382955124       -0.7277469202630558
330000000                0.4741154707080959       -0.7725482569379137
360000000                0.4020463001168253       -0.8110440744552712
390000000                0.3269693098454729       -0.8429421302825286
420000000                0.2494706597317137       -0.8680007459299308
450000000                0.17015931344088175      -0.8860312549688347
480000000                0.08966150816149838      -0.8968999726592719
510000000                0.008615269357633083     -0.9005296855435496
540000000                -0.0723350682880584      -0.8969006547656403
570000000                -0.1525443408670613      -0.8860511260752522
600000000                -0.2313720231088178      -0.8680773401378018
630000000                -0.3081876586234762      -0.8431330388188214
660000000                -0.382376218325327       -0.8114284662047138
690000000                -0.45334334776805596     -0.7732288669514861
720000000                -0.5205204602722628      -0.7288524890326996
750000000                -0.5833696307800442      -0.678668102914346
780000000                -0.6413882451327947      -0.6230920539764901
810000000                -0.6941133587757884      -0.562584870935907
840000000                -0.7411257213976875      -0.4976474575528685
870000000                -0.782053425107233       -0.4288169009906986
900000000                -0.8165751377589285      -0.3566619343304635
930000000                -0.8444228862536909      -0.2817780958735644
960000000                -0.8653843593884418      -0.2047826318149565
990000000                -0.8793047048980207      -0.12630919267437674
1020000000               -0.8860878011616266      -0.047002376086145985
1050000000               -0.8856969897893898      0.032487828408845544
1080000000               -0.8781552618727331      0.11151163619230164
1110000000               -0.8635448970726977      0.18942504901869872
1140000000               -0.8420065612211755      0.26559536420813973
1170000000               -0.8137378745216601      0.339406556205605
1200000000               -0.7789914686449984      0.4102644767526249
1230000000               -0.7380725568300468      0.47760182296382414
1260000000               -0.6913360464025459      0.5408828260794828
1290000000               -0.6391832281378985      0.5996076173931709
1320000000               -0.5820580809307405      0.6533162328637279
1350000000               -0.5204432337838728      0.701592222789439
1380000000               -0.4548556301829619      0.7440658380318648
1410000000               -0.38584194155653506     0.7804167702540046
1440000000               -0.31397377826287615     0.8103764288167759
1470000000               -0.23984274691531393     0.833729742779458
1500000000               -0.16405540285584036     0.8503164818466122
1530000000               -0.08722814577979819     0.8600320953419524
1560000000               -0.009982105304862543    0.8628280732044188
1590000000               0.06706193868413539      0.8587118376039952
1620000000               0.1432885581919697       0.8477461779007822
1650000000               0.2180925618632882       0.830048245408579
1680000000               0.29088372515076666      0.8057881276315655
1710000000               0.36109133192948306      0.7751870244066176
1740000000               0.42816849667545753      0.7385150506902272
1770000000               0.4915962397929763       0.6960886924925074
1800000000               0.5508872916404745       0.648267943944422
1830000000               0.6055896042760068       0.5954531543665039
1860000000               0.6552895526652436       0.5380816150446278
1890000000               0.6996148103553232       0.47662391553894423
1920000000               0.7382368870840055       0.41158009961182657
1950000000               0.7708733184146745       0.3434756507261916
1980000000               0.7972894999154282       0.2728573366736892
2010000000               0.8173001604454125       0.20028894264983635
2040000000               0.8307704711709736       0.12634692156638452
2070000000               0.8376167887965714       0.05161598976011317
2100000000               0.8378070331272447       -0.023315304067897658
2130000000               0.8313607007843381       -0.09785900961331394
2.16E9                   0.8183485183980388       -0.1714321788984573
2.19E9                   0.798891740119332        -0.2434612174206755
2.22E9                   0.7731610957472882       -0.31338615744841153
2.25E9                   0.7413753971339138       -0.3806648292336557
2.28E9                   0.7037998116664849       -0.44477690715152945
2.31E9                   0.6607438123831116       -0.5052278091851886
2.34E9                   0.61255881418857         -0.5615524298982388
2.37E9                   0.5596355041995159       -0.6133186885633277
2.4E9                    0.5024008708735824       -0.6601308745077425
2.43E9                   0.441314931346523        -0.7016327689487134
2.46E9                   0.3768671500968692       -0.7375105142504653
2.49E9                   0.3095725402763215       -0.7674951836258168
2.52E9                   0.2399674501185551       -0.79136497820966
2.55E9                   0.16860507292378613      -0.8089469532728529
2.58E9                   0.0960507840641352       -0.8201181754877107
2.61E9                   0.022877479360951726     -0.824806269473596
2.64E9                   -0.05033888914941578     -0.8229894298494417
2.67E9                   -0.12302346739220855     -0.8146960994711121
2.7E9                    -0.19460640386198183     -0.8000045438353087
2.73E9                   -0.26452671566663727     -0.7790424309907461
2.76E9                   -0.33223633465524244     -0.7519863279296031
2.79E9                   -0.3972044127313423      -0.7190608935220962
2.82E9                   -0.45892179359736895     -0.6805375621340544
2.85E9                   -0.5169054655422961      -0.6367326246141574
2.88E9                   -0.570702817511559       -0.5880047286191894
2.91E9                   -0.6198955802124705      -0.5347518824223132
2.94E9                   -0.6641033937366294      -0.47740805629186867
2.97E9                   -0.7029869796037815      -0.41643945950467737
3.0E9                    -0.7362509097765918      -0.3523405510488311
3.03E9                   -0.7636459671138449      -0.2856298284559368
3.06E9                   -0.7849710897482813      -0.21684543255597957
3.09E9                   -0.8000748898101524      -0.14654060490839707
3.12E9                   -0.8088567369715682      -0.07527903585812133
3.15E9                   -0.8112673991148741      -0.003630143307218784
3.18E9                   -0.8073092357316304      0.06783567574772616
3.21E9                   -0.7970359438962517      0.13855177782803038
3.24E9                   -0.7805518612894629      0.20795994617921598
3.27E9                   -0.7580108354922013      0.27551496170141604
3.3E9                    -0.7296146734112284      0.3406890298272035
3.33E9                   -0.6956111889796812      0.40297602368199537
3.36E9                   -0.6562918713253586      0.46189550602722856
3.39E9                   -0.611989199181432       0.5169964954440422
3.42E9                   -0.5630736305903318      0.5678609452509547
3.45E9                   -0.5099502997782638      0.6141069071601041
3.48E9                   -0.45305545559458027     0.6553913552812798
3.51E9                   -0.39285267787293715     0.6914126501357896
3.54E9                   -0.3298289097242373      0.7219126263845089
3.57E9                   -0.26449034477524275     0.746678292379114
3.6E9                    -0.19735820890896322     0.765543134042878
3.63E9                   -0.1289644759544368      0.7783880200699497
3.66E9                   -0.05984755587615283     0.785141709850166
3.69E9                   0.009452007503799643     0.7857809695334356
3.72E9                   0.07839579438123252      0.7803303051447426
3.75E9                   0.14645169021860163      0.7688613243307858
3.78E9                   0.21309796057419883      0.7514917400617986
3.81E9                   0.27782719190490685      0.7283840306376977
3.84E9                   0.3401500719150965       0.699743770972303
3.87E9                   0.39959898349536865      0.6658176509927413
3.9E9                    0.4557313859022971       0.6268911986894126
3.93E9                   0.5081329566087096       0.5832862283040783
3.96E9                   0.5564204676208231       0.5353580385730625
3.99E9                   0.6002443723418196       0.48349239138266054
4.02E9                   0.6392910839209937       0.42810230671174837
4.05E9                   0.673284933675804        0.36962471369962857
4.08E9                   0.7019898078386447       0.30851699833930585
4.11E9                   0.725210470396128        0.24525348459176657
4.14E9                   0.7427935866131226       0.1803218777965937
4.17E9                   0.7546284635922302       0.11421968944625216
4.2E9                    0.7606475205739059       0.04745065410652499
4.23E9                   0.7608264947982306       -0.019478854580772302
4.26E9                   0.7551843821769375       -0.0860634003286151
4.29E9                   0.743783109110979        -0.1518020394154015
4.32E9                   0.7267269335291687       -0.21620183613267205
4.35E9                   0.7041615777973682       -0.2787813178269844
4.38E9                   0.6762731003021614       -0.3390738510242093
4.41E9                   0.6432865136292215       -0.39663092395913935
4.44E9                   0.6054641547534505       -0.45102532403944884
4.47E9                   0.563103808412479        -0.5018541984861157
4.5E9                    0.5165365815379034       -0.5487419824249988
4.53E9                   0.4661245265016808       -0.5913431725190551
4.56E9                   0.41225801484304975      -0.6293449180100664
4.59E9                   0.35535287002909527      -0.6624693972237163
4.62E9                   0.2958472762237822       -0.6904759470064104
4.65E9                   0.23419848812976804      -0.7131629154545945
4.68E9                   0.17087937323835442      -0.7303692140372333
4.71E9                   0.10637482151298042      -0.7419755525618607
4.74E9                   0.04117805799155008      -0.7479053481816837
4.77E9                   -0.024213108537358433    -0.748125306156251
4.8E9                    -0.08930007195052686     -0.7426456741426384
4.83E9                   -0.15358722583623197     -0.73152017274822
4.86E9                   -0.21658574959148924     -0.7148456035362724
4.89E9                   -0.2778173620640482      -0.6927611331281344
4.92E9                   -0.3368180186791545      -0.6654472503766085
4.95E9                   -0.39314152390993995     -0.6331243940980118
4.98E9                   -0.44636302691791513     -0.5960512518532053
5.01E9                   -0.49608236521591964     -0.5545227352583771
5.04E9                   -0.5419272201481015      -0.5088676433418879
5.07E9                   -0.5835560485781068      -0.4594460318542184
5.1E9                    -0.6206607575258462      -0.4066463127265612
5.13E9                   -0.6529690925973028      -0.35088211356445875
5.16E9                   -0.6802467168662841      -0.29258893158405747
5.19E9                   -0.7022989640198612      -0.23222061883500056
5.22E9                   -0.7189722570021416      -0.17024573494234654
5.25E9                   -0.7301551891095285      -0.1071438000309928
5.28E9                   -0.7357792667439347      -0.0434014754582493
5.31E9                   -0.7358193114449766      0.020491303834062037
5.34E9                   -0.7302935151273197      0.08404522175781409
5.37E9                   -0.7192631396875209      0.14677547066503735
5.4E9                    -0.7028318530403608      0.20820560351884804
5.43E9                   -0.6811446991509318      0.26787130782530694
5.46E9                   -0.6543867083815947      0.32532405684385457
5.49E9                   -0.6227811644435388      0.38013459389325777
5.52E9                   -0.5865875533916806      0.4318962095966318
5.55E9                   -0.5460992274361218      0.4802277783395124
5.58E9                   -0.5016408212565171      0.5247765287218088
5.61E9                   -0.45356546055734387     0.5652205323103382
5.64E9                   -0.40225180091591        0.6012709049583038
5.67E9                   -0.3481009291625958      0.6326737231634483
5.7E9                    -0.2915331502163615      0.6592116619658599
5.73E9                   -0.23298467260913497     0.6807053582745441
5.76E9                   -0.17290420067126375     0.6970144945908614
5.79E9                   -0.11174944470790589     0.7080385870737742
5.82E9                   -0.04998357243358971     0.7137174556959549
5.85E9                   0.011928359907644471     0.7140313581946424
5.88E9                   0.07352294811671704      0.7090007834755211
5.91E9                   0.13434190382858732      0.698685918040854
5.94E9                   0.1939354031290181       0.6831858131233655
5.97E9                   0.2518652963613139       0.6626372857894234
6.0E9                    0.30770816862687095      0.6372135845593345
