% Model:              three_layers reality at 0.1mm.mph
% Version:            COMSOL 5.6.0.280
% Date:               Feb 23 2022, 17:20
% Table:              表格 1 - 全局计算 1
% freq (Hz)              real(emw.S11) (1)        imag(emw.S11) (1)
300000000                0.4058320596141501       -0.7783872085341524
330000000                0.3214269622000918       -0.8140528758483484
360000000                0.23411678969249705      -0.8408069446027732
390000000                0.1448083956417264       -0.8584085284947843
420000000                0.054434747506830305     -0.8667120716848862
450000000                -0.03605707750977505     -0.8656694993270106
480000000                -0.1257174336830559      -0.8553310956657256
510000000                -0.2136052775348315      -0.8358451635165463
540000000                -0.29879897729336086     -0.8074565103237852
570000000                -0.3804067214434748      -0.7705038055720483
600000000                -0.45757646305099553     -0.7254158585858859
630000000                -0.5295053229959973      -0.6727068724758162
660000000                -0.5954483700491554      -0.6129707382134839
690000000                -0.6547266957102341      -0.5468744413499288
720000000                -0.7067347051727788      -0.4751506624719465
750000000                -0.750946551533761       -0.39858966073673385
780000000                -0.7869216485583361      -0.31803053709435175
810000000                -0.8143092065167633      -0.2343519804997352
840000000                -0.8328517463050944      -0.14846260575846784
870000000                -0.8423875586458429      -0.061290995419455076
900000000                -0.8428520869470921      0.026224438436265998
930000000                -0.8342782251727118      0.11314565586186875
960000000                -0.8167955344915723      0.1985451375753955
990000000                -0.7906283951271802      0.28151586471954787
1020000000               -0.7560931220488176      0.36118101822774556
1050000000               -0.7135940851468295      0.4367032892986229
1080000000               -0.6636188856046594      0.5072936992455508
1110000000               -0.6067326507879512      0.5722198330971592
1140000000               -0.5435715194653773      0.630813399614468
1170000000               -0.4748353976668354      0.6824770392626458
1200000000               -0.40128007297602064     0.7266903112805903
1230000000               -0.3237087811225072      0.7630148015395599
1260000000               -0.24296332372349685     0.7910983036699315
1290000000               -0.15991483964143782     0.8106780372093447
1320000000               -0.07545433476785474     0.8215828779349779
1350000000               0.009516923905030162     0.823734587001424
1380000000               0.09409704430267213      0.8171480368474726
1410000000               0.1773930710953625       0.801930442913824
1440000000               0.2585303717071112       0.7782796209161263
1470000000               0.3366617484285939       0.7464812996367014
1500000000               0.41097618314562556      0.7069055288341223
1530000000               0.480707126810972        0.6600022307973828
1560000000               0.5451402519361056       0.6062959523238548
1590000000               0.6036205935469123       0.5463798812436431
1620000000               0.6555590115100295       0.48090919823722783
1650000000               0.7004379153027949       0.41059384037753155
1680000000               0.7378162009022976       0.3361907575659284
1710000000               0.767333358236742        0.25849574698819183
1740000000               0.7887127168998017       0.17833495353657855
1770000000               0.8017638070268511       0.09655612634925352
1800000000               0.8063838218558793       0.01401972236671055
1830000000               0.8025581779141397       -0.068410051887904
1860000000               0.7903601784159098       -0.14987417035822895
1890000000               0.7699497949734039       -0.2295276015206088
1920000000               0.7415715920584077       -0.30654792235799644
1950000000               0.7055518277013064       -0.3801436532999185
1980000000               0.6622947721580424       -0.44956224255566823
2010000000               0.6122782929966046       -0.5140976381664583
2040000000               0.5560487589929733       -0.5730973987583771
2070000000               0.4942153137701727       -0.6259693100570879
2100000000               0.42744355942707224      -0.6721874921344408
2130000000               0.35644866502357897      -0.711297997962879
2.16E9                   0.2819878686697321       -0.7429239068531898
2.19E9                   0.20485227392765673      -0.7667698856073465
2.22E9                   0.12585776760087963      -0.782626092331355
2.25E9                   0.045834861907463775     -0.7903710986153327
2.28E9                   -0.03438259651589242     -0.7899732127872063
2.31E9                   -0.11396946192761437     -0.7814893352954657
2.34E9                   -0.19212090734917828     -0.7650605978487387
2.37E9                   -0.2680617349048111      -0.7409049189196324
2.4E9                    -0.3410516305597449      -0.7093081835815233
2.43E9                   -0.41038624868810286     -0.6706169977934474
2.46E9                   -0.4753964259436078      -0.6252354249717024
2.49E9                   -0.5354490242680562      -0.5736256330112673
2.52E9                   -0.5899516466552966      -0.5163098527856697
2.55E9                   -0.6383608640263954      -0.45387052113230847
2.58E9                   -0.6801918131706148      -0.3869469517475925
2.61E9                   -0.7150269845876512      -0.31622873391253425
2.64E9                   -0.7425230109197936      -0.2424470404574305
2.67E9                   -0.7624152548829559      -0.16636504769900892
2.7E9                    -0.7745205148662742      -0.08876825196581731
2.73E9                   -0.7787382749554433      -0.010455049094698847
2.76E9                   -0.775050839013554       0.06777231404747616
2.79E9                   -0.7635225627115079      0.14511641603656655
2.82E9                   -0.7442982998730608      0.22079298832445093
2.85E9                   -0.7176011217235911      0.29403890280707085
2.88E9                   -0.6837293408065617      0.3641198066151807
2.91E9                   -0.6430528634891464      0.4303373721813655
2.94E9                   -0.5960088973173471      0.4920361176222763
2.97E9                   -0.5430970463367929      0.5486097457422672
3.0E9                    -0.48487383606957224     0.5995069477282391
3.03E9                   -0.4219467183679849      0.644236619205307
3.06E9                   -0.3549676142490021      0.6823724404444639
3.09E9                   -0.2846260594781917      0.7135567787184246
3.12E9                   -0.21164202282579092     0.7375038784577771
3.15E9                   -0.13675847033595456     0.7540023134021667
3.18E9                   -0.06073375025179502     0.7629166839168762
3.21E9                   0.01566612736508315      0.7641885510558225
3.24E9                   0.09167524468134972      0.7578366061923646
3.27E9                   0.16653549543985788      0.7439560802857499
3.3E9                    0.23950420448691326      0.7227173998492072
3.33E9                   0.3098615840442346       0.6943640976333119
3.36E9                   0.37691796252004867      0.6592099858927216
3.39E9                   0.4400207173774419       0.6176356003700223
3.42E9                   0.4985608360074416       0.5700839258094075
3.45E9                   0.5519790185570426       0.5170554210093512
3.48E9                   0.5997712261654303       0.4591023750765281
3.51E9                   0.6414935706257574       0.3968226475636407
3.54E9                   0.6767664410030886       0.3308528729004223
3.57E9                   0.7052777732645176       0.2618612408699677
3.6E9                    0.7267853928205487       0.19053999418790893
3.63E9                   0.7411183957290803       0.11759780502119128
3.66E9                   0.7481775772987558       0.04375219886713457
3.69E9                   0.7479349593694486       -0.030277814467624037
3.72E9                   0.7404325036299237       -0.10377876420904573
3.75E9                   0.7257801258528357       -0.17604928558610425
3.78E9                   0.7041531473043762       -0.24640615176673863
3.81E9                   0.6757893368225738       -0.3141897302328635
3.84E9                   0.6409857064605173       -0.37876887275913496
3.87E9                   0.6000952137015244       -0.4395453099333221
3.9E9                    0.5535234810335841       -0.49595768434989085
3.93E9                   0.5017255653397726       -0.5474853987877412
3.96E9                   0.44520270929515643      -0.5936524528390542
3.99E9                   0.3844989149794376       -0.6340313824916793
4.02E9                   0.3201971297196474       -0.6682473133268338
4.05E9                   0.2529148460527198       -0.6959820202620053
4.08E9                   0.1832989886731909       -0.7169777923590887
4.11E9                   0.11202006767232149      -0.7310408570844839
4.14E9                   0.039765686151679        -0.73804413243383
4.17E9                   -0.03276642735241211     -0.737929135977256
4.2E9                    -0.1048756514806719      -0.7307069644265615
4.23E9                   -0.1758657638605996      -0.7164583407762231
4.26E9                   -0.24505212396099518     -0.6953327885640537
4.29E9                   -0.31176863261852844     -0.6675470239957854
4.32E9                   -0.37537440496497987     -0.6333826567188806
4.35E9                   -0.43526012789218715     -0.5931832683019139
4.38E9                   -0.49085408473599434     -0.5473509081273422
4.41E9                   -0.5416278213136696      -0.4963420230900766
4.44E9                   -0.587101407782999       -0.44066282852634375
4.47E9                   -0.6268482302543016      -0.38086413484988185
4.5E9                    -0.6604992329029933      -0.31753566349225676
4.53E9                   -0.6877465293016543      -0.25129991092890397
4.56E9                   -0.7083463114722566      -0.18280564476932282
4.59E9                   -0.7221210052671589      -0.11272113636509057
4.62E9                   -0.7289606485877732      -0.04172724617804411
4.65E9                   -0.7288235006557013      0.02948952215048896
4.68E9                   -0.7217359199217344      0.10024389729675182
4.71E9                   -0.7077915674644961      0.16985857018602307
4.74E9                   -0.6871499949835201      0.23767073521548815
4.77E9                   -0.6600346600847689      0.3030384256768657
4.8E9                    -0.6267303829008066      0.36534663510253856
4.83E9                   -0.5875802305296576      0.42401320257691133
4.86E9                   -0.5429818035686387      0.4784944086807757
4.89E9                   -0.4933829105824583      0.5282901924196888
4.92E9                   -0.43927665018057804     0.5729488734091486
4.95E9                   -0.38119596707603387     0.6120712583419756
4.98E9                   -0.31970779520107073     0.6453140298397715
5.01E9                   -0.2554069359096082      0.6723923560991155
5.04E9                   -0.18890983376420786     0.6930817137836941
5.07E9                   -0.12084840114488477     0.7072189741747784
5.1E9                    -0.05186400478833378     0.7147028507722869
5.13E9                   0.01739833189147273      0.715493831021793
5.16E9                   0.08629552254775419      0.7096137040266025
5.19E9                   0.15419186897754536      0.6971447483465267
5.22E9                   0.22046444115123798      0.6782285740349216
5.25E9                   0.2845084198002656       0.6530645507906367
5.28E9                   0.34574236267718317      0.6219077317682071
5.31E9                   0.4036132841049657       0.5850662155619724
5.34E9                   0.4576014044953386       0.5428979634993356
5.37E9                   0.5072244507906417       0.49580716877532094
5.4E9                    0.55204145780992         0.4442403194269677
5.43E9                   0.5916561007502438       0.38868208965199
5.46E9                   0.6257196454527382       0.32965114149206953
5.49E9                   0.6539336164885807       0.26769584728922163
5.52E9                   0.6760522547127317       0.20338988072789324
5.55E9                   0.691884780698413        0.13732758921269977
5.58E9                   0.7012974170312369       0.0701190590616667
5.61E9                   0.7042150666803337       0.002384814645577389
5.64E9                   0.7006225080021938       -0.06524985356711528
5.67E9                   0.6905649585304503       -0.13216086832137938
5.7E9                    0.6741478867606823       -0.19773151807323175
5.73E9                   0.6515360150593147       -0.26135859615517887
5.76E9                   0.6229515452945368       -0.3224583284166731
5.79E9                   0.5886717225691633       -0.3804719330246832
5.82E9                   0.549025895648772        -0.4348707403137847
5.85E9                   0.5043922149081457       -0.48516089058671064
5.88E9                   0.455194041691885        -0.5308876814139152
5.91E9                   0.40189606498218744      -0.5716396321751364
5.94E9                   0.3450000711436115       -0.6070522841271283
5.97E9                   0.2850403075432663       -0.6368116908652848
6.0E9                    0.22257841285003543      -0.6606575060138127
