% Model:              three_layers reality at 0.1mm.mph
% Version:            COMSOL 5.6.0.280
% Date:               Mar 1 2022, 10:04
% Table:              表格 1 - 全局计算 1
% freq (Hz)              real(emw.S11) (1)        imag(emw.S11) (1)
300000000                0.557224153036647        -0.750126114383395
330000000                0.4862379640405303       -0.7964318224556004
360000000                0.411563687725017        -0.8361556420365615
390000000                0.3337829023237589       -0.8690022145140768
420000000                0.2535060305679583       -0.8947261985436742
450000000                0.17136698806007492      -0.9131356524264982
480000000                0.0880177215019316       -0.9240946899608607
510000000                0.004122642052079329     -0.9275254769711463
540000000                -0.07964702763608643     -0.9234096080370677
570000000                -0.1626189653197855      -0.9117888862577905
600000000                -0.2441254849456075      -0.8927655197078886
630000000                -0.32350925661258056     -0.8665017439529232
660000000                -0.4001289661442209      -0.8332188788700912
690000000                -0.4733648677603678      -0.793195829193289
720000000                -0.5426241799112386      -0.7467670410279047
750000000                -0.6073462745131905      -0.6943199303412494
780000000                -0.667007608561246       -0.6362918043224157
810000000                -0.7211263489269153      -0.5731663010582047
840000000                -0.7692666418254733      -0.5054693788078685
870000000                -0.8110424815858768      -0.43376489125367385
900000000                -0.8461211367179362      -0.3586497900129171
930000000                -0.874226095259873       -0.28074900108082707
960000000                -0.8951394966250196      -0.2007100255578783
990000000                -0.9087040225861002      -0.11919731952969044
1020000000               -0.9148242263763188      -0.036886510215588676
1050000000               -0.9134672853509104      0.04554149152349924
1080000000               -0.9046631696264348      0.12740642127872004
1110000000               -0.8885042261724048      0.20803457222744273
1140000000               -0.8651441849086526      0.286764625866904
1170000000               -0.8347966003105389      0.36295334276615493
1200000000               -0.7977327487362504      0.4359810555915085
1230000000               -0.7542790080350955      0.5052569099388367
1260000000               -0.704813751685985       0.5702238024181995
1290000000               -0.6497637950909909      0.6303629696997508
1320000000               -0.5896004359245293      0.6851981876415354
1350000000               -0.524835134384571       0.7342995448584237
1380000000               -0.4560148819401632      0.7772867611498168
1410000000               -0.38371730952692684     0.8138320270332534
1440000000               -0.3085455871515286      0.843662346985375
1470000000               -0.23112316769079497     0.866561374803136
1500000000               -0.15208842717579715     0.8823707355922438
1530000000               -0.07208925305496638     0.8909908344053572
1560000000               0.00822236967671426      0.8923811569032222
1590000000               0.08819572669884153      0.8865600722773742
1620000000               0.16718665182836948      0.8736041530741508
1650000000               0.24456267132102882      0.8536470304943397
1680000000               0.3197079761469798       0.8268778071038434
1710000000               0.3920281866066351       0.7935390517623453
1740000000               0.4609548771982246       0.7539244039120583
1770000000               0.5259498332724405       0.7083758162611343
1800000000               0.5865090145934729       0.6572804662175384
1830000000               0.6421662042993902       0.6010673674938366
1860000000               0.6924963251995462       0.5402037138579389
1890000000               0.7371184085649318       0.47519098734978116
1920000000               0.7756982037071826       0.4065608632011545
1950000000               0.8079504195968923       0.334870943564775
1980000000               0.8336405927970202       0.26070035149217347
2010000000               0.8525865788631404       0.1846452157847671
2040000000               0.8646596673062462       0.1073140758814061
2070000000               0.8697853230182858       0.029323233727309723
2100000000               0.8679435594832867       -0.04870792401466057
2130000000               0.8591689501804706       -0.12616161527924102
2.16E9                   0.8435502826816901       -0.20242635280477828
2.19E9                   0.8212298519730382       -0.27690163282396757
2.22E9                   0.7924023718449          -0.3490026252691164
2.25E9                   0.7573134540072083       -0.41816486087852045
2.28E9                   0.7162575714700342       -0.48384887473603205
2.31E9                   0.6695754128656557       -0.5455446888645611
2.34E9                   0.6176505954623274       -0.6027759148227511
2.37E9                   0.5609058697457933       -0.6551032053097059
2.4E9                    0.49979916118558343      -0.7021268930496126
2.43E9                   0.4348198748658277       -0.7434889538511246
2.46E9                   0.36648567578783403      -0.7788747342420038
2.49E9                   0.2953395466170243       -0.808014907109059
2.52E9                   0.22194665015046822      -0.8306877995541744
2.55E9                   0.1468906033889569       -0.8467218486361638
2.58E9                   0.07076907629513728      -0.8559977820421981
2.61E9                   -0.0058111135757879856   -0.8584502227037343
2.64E9                   -0.08223915982691016     -0.8540686089605093
2.67E9                   -0.15790548024740636     -0.8428974593044436
2.7E9                    -0.2322068690178826      -0.8250360594911768
2.73E9                   -0.3045515342065477      -0.8006376433423933
2.76E9                   -0.37436399502850437     -0.7699081149760213
2.79E9                   -0.4410898199332789      -0.7331043400451067
2.82E9                   -0.5042001831856247      -0.6905320224102686
2.85E9                   -0.5631962122441344      -0.6425431790219487
2.88E9                   -0.6176130935721524      -0.5895332271023823
2.91E9                   -0.667023902036506       -0.5319377013935935
2.94E9                   -0.7110431183667133      -0.4702286240312863
2.97E9                   -0.7493298000531681      -0.40491055462086323
3.0E9                    -0.7815903732610893      -0.3365163528832373
3.03E9                   -0.8075810164861636      -0.26560269066164693
3.06E9                   -0.8271096106317928      -0.1927453539593066
3.09E9                   -0.8400372347982268      -0.11853437889316241
3.12E9                   -0.8462791921827979      -0.043569067970051785
3.15E9                   -0.845805555967327       0.03154706532010853
3.18E9                   -0.838641230668419       0.10621137457283106
3.21E9                   -0.8248655301054968      0.17982713254804794
3.24E9                   -0.8046112784592346      0.2518085092905892
3.27E9                   -0.7780634458607402      0.32158543003728046
3.3E9                    -0.745457334283973       0.38860826880977983
3.33E9                   -0.7070763332936046      0.4523523358503684
3.36E9                   -0.6632492684026612      0.512322119491007
3.39E9                   -0.6143473677320769      0.5680552451394884
3.42E9                   -0.5607808755146945      0.6191261159829355
3.45E9                   -0.5029953442089304      0.6651492016219523
3.48E9                   -0.4414676407893649      0.7057819426267424
3.51E9                   -0.37670170737613784     0.740727241337705
3.54E9                   -0.30922412173327        0.7697355127081633
3.57E9                   -0.23957950868341876     0.7926062744200639
3.6E9                    -0.16832585822740498     0.8091892631331459
3.63E9                   -0.09602980898928255     0.819385073306667
3.66E9                   -0.02326195567925762     0.8231453256538626
3.69E9                   0.04940776389057771      0.8204723826062174
3.72E9                   0.1214145520868346       0.8114186369655322
3.75E9                   0.19220306176403135      0.7960854069698448
3.78E9                   0.26123149803839335      0.7746214766600075
3.81E9                   0.3279754848687871       0.7472213251486975
3.84E9                   0.3919316809241357       0.7141230914768342
3.87E9                   0.45262114266475123      0.67560632111739
3.9E9                    0.509592446523591        0.6319895333602701
3.93E9                   0.5624245921574572       0.583627635137577
3.96E9                   0.6107297109559604       0.5309091886450327
3.99E9                   0.6541555957128985       0.4742535229811754
4.02E9                   0.6923880508566946       0.41410766985808894
4.05E9                   0.7251530429943817       0.35094310413737606
4.08E9                   0.7522186155213799       0.28525228109647094
4.11E9                   0.773396523391051        0.2175449800601693
4.14E9                   0.7885435465338091       0.14834448253331287
4.17E9                   0.7975624509423235       0.07818362738887938
4.2E9                    0.8004025815024272       0.007600792801084408
4.23E9                   0.7970600858509962       -0.06286414573511574
4.26E9                   0.7875777804598691       -0.13267383860696397
4.29E9                   0.7720446766238404       -0.20129743347606013
4.32E9                   0.7505951848037832       -0.2682144716348926
4.35E9                   0.7234080122412071       -0.3329186930212749
4.38E9                   0.6907047632721032       -0.39492173639337724
4.41E9                   0.652748246975635        -0.4537567198890042
4.44E9                   0.6098404944067547       -0.5089816833038775
4.47E9                   0.5623204884687336       -0.5601828686212916
4.5E9                    0.5105616128755782       -0.6069778115444593
4.53E9                   0.45496883197391896      -0.649018214553403
4.56E9                   0.39597561915565493      -0.6859925721626041
4.59E9                   0.3340406575076024       -0.7176285212963074
4.62E9                   0.26964434127286036      -0.7436948940401686
4.65E9                   0.20328510970813465      -0.7640034559811134
4.68E9                   0.13547564529190748      -0.7784103198768503
4.71E9                   0.06673896558541088      -0.7868170299494566
4.74E9                   -0.002395566575074426    -0.7891713148182895
4.77E9                   -0.07139629458222495     -0.7854675059502523
4.8E9                    -0.13973336310836545     -0.7757466139999951
4.83E9                   -0.20688283588365214     -0.7600960499593988
4.86E9                   -0.2723308080463422      -0.7386489748146416
4.89E9                   -0.33557747498721646     -0.7115832630351504
4.92E9                   -0.39614111049945805     -0.6791200724686844
4.95E9                   -0.4535619014207477      -0.6415220249234106
4.98E9                   -0.5074055857482354      -0.5990910155155721
5.01E9                   -0.5572668466256258      -0.5521656820842481
5.04E9                   -0.6027724250508757      -0.5011185761188798
5.07E9                   -0.6435839278086066      -0.4463530817006972
5.1E9                    -0.6794003215415848      -0.3883001274080877
5.13E9                   -0.7099601153123047      -0.32741472789989623
5.16E9                   -0.7350432386521255      -0.26417237914409525
5.19E9                   -0.7544726176760905      -0.19906531864752153
5.22E9                   -0.768115439451423       -0.1325986560072642
5.25E9                   -0.775884080379908       -0.06528638401060498
5.28E9                   -0.7777366660021316      0.002352703846185836
5.31E9                   -0.7736772338677836      0.06979914379675872
5.34E9                   -0.7637554880331601      0.13653692020034386
5.37E9                   -0.7480661567697869      0.2020575102563177
5.4E9                    -0.726747984461464       0.26586380516996616
5.43E9                   -0.6999823971743525      0.3274738772448158
5.46E9                   -0.6679918776231916      0.3864245808814951
5.49E9                   -0.6310380731826403      0.442274986505437
5.52E9                   -0.5894196464295358      0.4946096478500905
5.55E9                   -0.5434698667935639      0.543041696232313
5.58E9                   -0.49355393719823565     0.5872157440191395
5.61E9                   -0.44006605184707426     0.6268105668840255
5.64E9                   -0.3834261902514716      0.6615415235676911
5.67E9                   -0.3240766672593754      0.6911626654774059
5.7E9                    -0.2624784772765115      0.7154684894554584
5.73E9                   -0.19910748918015778     0.7342952978651507
5.76E9                   -0.13445056016934664     0.747522150790346
5.79E9                   -0.06900163604282898     0.7550714205221163
5.82E9                   -0.003257890376925232    0.7569089794945456
5.85E9                   0.06228406828073894      0.7530440606514008
5.88E9                   0.12713191310135308      0.7435288216819238
5.91E9                   0.19080124095312884      0.728457627711018
5.94E9                   0.25281913721835336      0.7079660508816057
5.97E9                   0.3127276488372154       0.6822295773169572
6.0E9                    0.3700871378009716       0.6514620137680232
