% Model:              three_layers reality at 0.1mm.mph
% Version:            COMSOL 5.6.0.280
% Date:               Mar 1 2022, 10:00
% Table:              表格 1 - 全局计算 1
% freq (Hz)              real(emw.S11) (1)        imag(emw.S11) (1)
300000000                0.5512737504139722       -0.7419188075083145
330000000                0.48117289710405303      -0.7876377375012288
360000000                0.4074296741898728       -0.8268728546007051
390000000                0.33061730053317295      -0.8593293140542759
420000000                0.25133790181565047      -0.8847626693925896
450000000                0.17021696924555219      -0.9029819146717988
480000000                0.0878978194738064       -0.9138518832796418
510000000                0.005036017722921571     -0.9172950495199601
540000000                -0.07770624328161979     -0.91329275774671
570000000                -0.15966579517776688     -0.9018858917173769
600000000                -0.2401841528291854      -0.8831749908798212
630000000                -0.3186131456873909      -0.8573198179110094
660000000                -0.3943204822936366      -0.8245383822794339
690000000                -0.4666952039175829      -0.7851054267201586
720000000                -0.5351529805821172      -0.7393503869236766
750000000                -0.5991412013320289      -0.6876548389867868
780000000                -0.6581438099779456      -0.6304494540019032
810000000                -0.7116858381715007      -0.5682104844396663
840000000                -0.7593375892560685      -0.5014558121599627
870000000                -0.8007184286659087      -0.4307405932740528
900000000                -0.8355001398613005      -0.35665254040815136
930000000                -0.8634098092873963      -0.2798068869637957
960000000                -0.884232208021412       -0.2008410833508031
990000000                -0.8978116438682161      -0.12040927773949378
1020000000               -0.9040532632004707      -0.039176637809115206
1050000000               -0.9029237885513857      0.04218642854917609
1080000000               -0.8944516845374347      0.12301009377053569
1110000000               -0.8787267515592702      0.20263091232121191
1140000000               -0.85589915371644        0.2803975437809173
1170000000               -0.8261778940041872      0.35567633918019187
1200000000               -0.7898287565668213      0.4278567339445507
1230000000               -0.747171741701349       0.4963563946789029
1260000000               -0.6985780251710477      0.560626070006143
1290000000               -0.6444664783077441      0.620154100457674
1320000000               -0.5852997898609112      0.6744705471911929
1350000000               -0.5215802341393125      0.7231509047731792
1380000000               -0.4538451329357603      0.7658193688291455
1410000000               -0.3826620608508886      0.8021516352711328
1440000000               -0.3086238447536606      0.831877213858602
1470000000               -0.2323434089728699      0.8547812445328259
1500000000               -0.154448517236016       0.8707058109574524
1530000000               -0.0755764617906845      0.8795507509994791
1560000000               0.0036312514651635655    0.881273969169627
1590000000               0.08253417511765822      0.8758912607812426
1620000000               0.16049810515647264      0.8634756619110449
1650000000               0.2369001374213708       0.8441563430908476
1680000000               0.3111335569998046       0.8181170679937616
1710000000               0.3826125257103831       0.7855942411931447
1740000000               0.45077653594689626      0.7468745714317477
1770000000               0.5150946028934754       0.7022923786265682
1800000000               0.5750691703217549       0.6522265743189983
1830000000               0.6302397088045475       0.5970973462134457
1860000000               0.680185988387402        0.5373625780523961
1890000000               0.7245310108101037       0.4735140365803446
1920000000               0.7629435897434149       0.40607335705123493
1950000000               0.7951405701026282       0.33558785886958326
1980000000               0.8208886807052501       0.26262622208159575
2010000000               0.8400060171711495       0.18777405486779175
2040000000               0.8523631549582125       0.11162938050988609
2070000000               0.8578838950252075       0.03479807027067793
2100000000               0.8565456468865591       -0.042110754791885446
2130000000               0.8483794547300111       -0.1184893354085394
2.16E9                   0.8334696701124064       -0.19373588801674294
2.19E9                   0.8119532668085836       -0.26725921788393264
2.22E9                   0.7840187760893453       -0.3384833324637592
2.25E9                   0.7499047930599645       -0.4068520472269735
2.28E9                   0.7098979744135061       -0.47183354025892843
2.31E9                   0.6643304421719631       -0.5329247370247264
2.34E9                   0.6135765713896512       -0.5896553118909601
2.37E9                   0.5580493016194631       -0.641591050058135
2.4E9                    0.4981963117482366       -0.6883364289943579
2.43E9                   0.43449646119263313      -0.7295365697409701
2.46E9                   0.3674566815840075       -0.7648789908721558
2.49E9                   0.2976091056346672       -0.7940956013068456
2.52E9                   0.22550797052653115      -0.8169650475618191
2.55E9                   0.1517259277140191       -0.8333151603704547
2.58E9                   0.0768496932718616       -0.8430251067807206
2.61E9                   0.0014752176483360914    -0.8460269637386961
2.64E9                   -0.07379737913090648     -0.8423066185695891
2.67E9                   -0.14836891607863337     -0.831904031581546
2.7E9                    -0.22164619635694188     -0.8149129391855428
2.73E9                   -0.2930469399513941      -0.7914800667904336
2.76E9                   -0.3620045810892258      -0.7618038966733078
2.79E9                   -0.4279729127584627      -0.7261330162946944
2.82E9                   -0.4904305567093144      -0.6847640619424961
2.85E9                   -0.5488852317936916      -0.6380392693554723
2.88E9                   -0.6028777888101351      -0.5863436445160822
2.91E9                   -0.6519859775709712      -0.5301017715868387
2.94E9                   -0.6958279112974783      -0.46977427971587976
2.97E9                   -0.7340651943443508      -0.4058539953605007
3.0E9                    -0.7664056813506397      -0.33886181155363
3.03E9                   -0.792605839060911       -0.2693423098135979
3.06E9                   -0.8124726858692786      -0.19785917414875306
3.09E9                   -0.825865288592063       -0.12499043988660281
3.12E9                   -0.8326958009733888      -0.051323622379172235
3.15E9                   -0.832930033686436       0.022549227624977894
3.18E9                   -0.8265875510842822      0.09603649433996123
3.21E9                   -0.8137412953741823      0.16855194550799857
3.24E9                   -0.7945167441107674      0.23951961239402197
3.27E9                   -0.7690906116968255      0.30837855600278236
3.3E9                    -0.7376891098149541      0.3745874762945142
3.33E9                   -0.7005857854239812      0.4376291232962839
3.36E9                   -0.6580989581449908      0.4970144712970528
3.39E9                   -0.6105887818078476      0.5522866192641549
3.42E9                   -0.5584539578514348      0.6030243824360783
3.45E9                   -0.502128131504786       0.6488455416760015
3.48E9                   -0.44207600552812726     0.6894097189160308
3.51E9                   -0.378789210887312       0.7244208493743067
3.54E9                   -0.3127819789736517      0.7536292248239017
3.57E9                   -0.24458666537879684     0.7768330875638667
3.6E9                    -0.17474917962413825     0.7938797623877083
3.63E9                   -0.10382437807999541     0.8046663231007021
3.66E9                   -0.03237147691520832     0.8091398005872916
3.69E9                   0.03905046102283567      0.8072969492503064
3.72E9                   0.10988691695525042      0.7991835971277738
3.75E9                   0.17959214282448138      0.7848936116607933
3.78E9                   0.24763318949380064      0.7645675184382652
3.81E9                   0.3134937108658507       0.7383908146665258
3.84E9                   0.3766775289352765       0.7065920219008183
3.87E9                   0.4367119577465044       0.6694405217129937
3.9E9                    0.4931508972979026       0.6272442111738568
3.93E9                   0.5455777178024647       0.580347001716656
3.96E9                   0.593607956215164        0.52912616758568
3.99E9                   0.6368918385730784       0.47398953399133525
4.02E9                   0.6751166254996225       0.41537248601480575
4.05E9                   0.7080087595557057       0.353734780649083
4.08E9                   0.7353357780663488       0.2895571557340493
4.11E9                   0.7569079484442458       0.2233377468122305
4.14E9                   0.7725795858795828       0.15558834080827497
4.17E9                   0.7822500240052364       0.08683050886368437
4.2E9                    0.7858642238442481       0.01759166722002334
4.23E9                   0.7834130210372674       -0.05159888582408021
4.26E9                   0.7749330226513398       -0.12021391555009948
4.29E9                   0.7605061708467581       -0.18773214713359476
4.32E9                   0.7402589911980031       -0.253642090227721
4.35E9                   0.7143615398926532       -0.3174457758694462
4.38E9                   0.6830260587303454       -0.3786623923006989
4.41E9                   0.6465053423150856       -0.43683180492502266
4.44E9                   0.6050908197245427       -0.4915179417497373
4.47E9                   0.5591103538469568       -0.5423120211661716
4.5E9                    0.5089257650426514       -0.5888355952583008
4.53E9                   0.45493009094658654      -0.6307433799210318
4.56E9                   0.3975445999699492       -0.6677258433556559
4.59E9                   0.3372155817893642       -0.6995115267568117
4.62E9                   0.27441094261043836      -0.7258690753913926
4.65E9                   0.20961663585901819      -0.7466089639603348
4.68E9                   0.14333295910702779      -0.7615849064020925
4.71E9                   0.07607074542940762      -0.7706949455220639
4.74E9                   0.00834747283199171      -0.7738822202854454
4.77E9                   -0.05931668887688311     -0.7711354073191923
4.8E9                    -0.12640287607111453     -0.7624888288095651
4.83E9                   -0.1923975536321681      -0.7480222137724755
4.86E9                   -0.25679653378429695     -0.727860096791782
4.89E9                   -0.3191089541830412      -0.7021708401506688
4.92E9                   -0.37886116926179253     -0.6711652724956316
4.95E9                   -0.4356005037318547      -0.6350949485537817
4.98E9                   -0.488898817170648       -0.5942500477026312
5.01E9                   -0.5383558340942527      -0.5489569417465832
5.04E9                   -0.5836022041159913      -0.4995754717234725
5.07E9                   -0.6243022698559577      -0.4464959781384239
5.1E9                    -0.6601565339651094      -0.39013612720241
5.13E9                   -0.6909038272460378      -0.33093756756740206
5.16E9                   -0.7163231838741888      -0.26936243980616775
5.19E9                   -0.7362354250450784      -0.20588974910789848
5.22E9                   -0.7505044403149637      -0.14101160631683898
5.25E9                   -0.759038142145889       -0.0752293476970444
5.28E9                   -0.7617890615636502      -0.009049559212135452
5.31E9                   -0.7587545574325699      0.05701994992152845
5.34E9                   -0.7499766284689381      0.12247416616527998
5.37E9                   -0.7355413392592496      0.18681482366546365
5.4E9                    -0.7155778898972407      0.24955424160354844
5.43E9                   -0.690257366572042       0.3102190177414086
5.46E9                   -0.6597912064665526      0.36835356648534695
5.49E9                   -0.6244293985829041      0.42352349996472116
5.52E9                   -0.5844584286582409      0.47531885144867947
5.55E9                   -0.5401989661972154      0.5233571335859166
5.58E9                   -0.49200328762875645     0.5672862127554839
5.61E9                   -0.4402524322478887      0.6067869688006049
5.64E9                   -0.38535309663368367     0.6415756991686057
5.67E9                   -0.3277342875907355      0.6714062207633426
5.7E9                    -0.26784377151642086     0.6960716242113153
5.73E9                   -0.20614437540302452     0.7154056461915312
5.76E9                   -0.14311020572377872     0.7292836455008632
5.79E9                   -0.07922285005257823     0.7376231929821557
5.82E9                   -0.01496761164263223     0.7403843051833547
5.85E9                   0.04917019541076861      0.7375693586460426
5.88E9                   0.11270888249612235      0.7292227140500176
5.91E9                   0.1751739550460048       0.7154300631931011
5.94E9                   0.23610160989018178      0.6963174965361444
5.97E9                   0.29504214601769974      0.672050281870022
6.0E9                    0.35156326080929046      0.6428313468711853
