% Model:              three_layers reality at 0.1mm.mph
% Version:            COMSOL 5.6.0.280
% Date:               Mar 3 2022, 12:10
% Table:              表格 1 - 全局计算 1
% freq (Hz)              real(emw.S11) (1)        imag(emw.S11) (1)
300000000                0.6196541745781321       -0.7485412663772539
330000000                0.5521401378725191       -0.7991763435242633
360000000                0.48061511263343476      -0.8437732293124894
390000000                0.4055987187793999       -0.8820202677774449
420000000                0.32764317216115946      -0.9136473740221771
450000000                0.2473232688404787       -0.9384313367544994
480000000                0.16523184742672614      -0.9561981368061687
510000000                0.0819753986577922       -0.9668246297049351
540000000                -0.0018304720719806156   -0.9702397808749803
570000000                -0.08556566828012145     -0.9664254522653457
600000000                -0.16861027328611267     -0.9554167467975128
630000000                -0.2503492296464813      -0.937301916850953
660000000                -0.3301769907445296      -0.9122218433728133
690000000                -0.40750210767455314     -0.880369094246177
720000000                -0.4817517157964167      -0.8419865714102722
750000000                -0.552375884395114       -0.797365759742188
780000000                -0.6188517969268599      -0.7468445918008029
810000000                -0.6806877276266659      -0.6908049461394445
840000000                -0.7374267828298756      -0.6296697992587141
870000000                -0.7886503774417879      -0.563900053527959
900000000                -0.8339814180905617      -0.49399106679490185
930000000                -0.8730871680798128      -0.4204689101919898
960000000                -0.9056817698727717      -0.3438863854060134
990000000                -0.9315284056564255      -0.26481883189848543
1020000000               -0.9504410780275765      -0.18385975830156645
1050000000               -0.9622859966438126      -0.1016163329916948
1080000000               -0.9669825597480082      -0.018704769899162754
1110000000               -0.9645039230476841      0.06425435331539375
1140000000               -0.9548771516733319      0.14664080674536878
1170000000               -0.9381829547744124      0.22783941225688645
1200000000               -0.9145550055169989      0.3072447017768397
1230000000               -0.8841788529292769      0.38426549297885626
1260000000               -0.847290435421612       0.45832934613764353
1290000000               -0.8041742090394628      0.5288868669333007
1320000000               -0.7551609066475087      0.5954158217133946
1350000000               -0.7006249474127437      0.6574250331641829
1380000000               -0.6409815183898109      0.714458026854758
1410000000               -0.5766833528259937      0.7660964010347118
1440000000               -0.5082172319779106      0.8119628946374674
1470000000               -0.43610023918614077     0.851724131332743
1500000000               -0.3608757967980998      0.8850930200442488
1530000000               -0.28310951776720444     0.9118307955148652
1560000000               -0.20338490514912033     0.9317486853784459
1590000000               -0.12229893342731941     0.944709193395524
1620000000               -0.04045754582369252     0.9506269916757066
1650000000               0.04152889737308918      0.949469417634838
1680000000               0.1230501850172317       0.9412565746865225
1710000000               0.20350080145394092      0.9260610386601841
1740000000               0.28228441943671695      0.9040071747273191
1770000000               0.3588183063221797       0.8752700726542099
1800000000               0.4325376119495502       0.8400741107517554
1830000000               0.5028995074147122       0.7986911615143997
1860000000               0.5693871456194082       0.7514384543036766
1890000000               0.6315134155719421       0.6986761129603674
1920000000               0.6888244652836342       0.6408043876839935
1950000000               0.7409029684035962       0.5782606033762915
1980000000               0.7873711133363366       0.5115158474046152
2010000000               0.8278932944150835       0.4410714221479188
2040000000               0.8621784878743992       0.3674550882735781
2070000000               0.8899822967968789       0.291217126783072
2100000000               0.9111086521778887       0.21292624807508825
2130000000               0.9254111593614582       0.13316537754264576
2.16E9                   0.9327940814736512       0.05252734782994111
2.19E9                   0.933212954093942        -0.0283894716691655
2.22E9                   0.926674827813547        -0.10898557741537516
2.25E9                   0.9132381378295058       -0.18866473528755356
2.28E9                   0.8930122022334608       -0.26683835457039345
2.31E9                   0.8661563530774107       -0.34292980200167844
2.34E9                   0.8328787066925362       -0.4163786259131815
2.37E9                   0.7934345818253036       -0.4866446620833249
2.4E9                    0.7481245759696755       -0.5532119932046834
2.43E9                   0.6972923115746706       -0.6155927354921386
2.46E9                   0.6413218646713287       -0.6733306260703119
2.49E9                   0.5806348888286975       -0.7260043846165549
2.52E9                   0.5156874487892988       -0.7732308203390048
2.55E9                   0.44696658258184296      -0.8146676515322119
2.58E9                   0.37498661920620846      -0.8500160032172381
2.61E9                   0.3002852928391955       -0.8790225512856624
2.64E9                   0.2234197052120356       -0.9014812962145833
2.67E9                   0.14496218781252         -0.9172349706445685
2.7E9                    0.06549609878950147      -0.9261761019711126
2.73E9                   -0.01438843517764532     -0.9282477495060628
2.76E9                   -0.09409883409211091     -0.9234439159110659
2.79E9                   -0.17304443199874361     -0.911809611512651
2.82E9                   -0.2506408707411959      -0.8934405428830225
2.85E9                   -0.3263144768028813      -0.8684824064565364
2.88E9                   -0.39950657153859315     -0.837129783971922
2.91E9                   -0.4696776689532971      -0.7996246496781547
2.94E9                   -0.5363115212931951      -0.7562545068110511
2.97E9                   -0.5989189795570895      -0.7073501734461902
3.0E9                    -0.6570416396071842      -0.6532832389970616
3.03E9                   -0.7102552475135868      -0.5944632130538284
3.06E9                   -0.758172839175029       -0.5313343896138744
3.09E9                   -0.8004475910289742      -0.4643724512411538
3.12E9                   -0.8367753605430043      -0.39408083947474426
3.15E9                   -0.8668968972095561      -0.3209869198036607
3.18E9                   -0.8905997073470786      -0.24563797105615542
3.21E9                   -0.9077195585737615      -0.1685970308831669
3.24E9                   -0.9181416129606609      -0.09043862982536309
3.27E9                   -0.9218011807015867      -0.011744447782325885
3.3E9                    -0.9186840894533493      0.06690107311023961
3.33E9                   -0.9088266675622434      0.14491512455198205
3.36E9                   -0.89231534263483        0.22172090278804282
3.39E9                   -0.869285860018699       0.29675191992748035
3.42E9                   -0.8399221288558295      0.36945622237353515
3.45E9                   -0.8044547063551644      0.43930048400167254
3.48E9                   -0.7631589337579104      0.5057739428731697
3.51E9                   -0.7163527403555499      0.5683921515617641
3.54E9                   -0.664394134308836       0.6267005132162524
3.57E9                   -0.607678401571625       0.6802775772197015
3.6E9                    -0.5466350362753838      0.728738070567733
3.63E9                   -0.48172442803719423     0.7717356434114279
3.66E9                   -0.4134343330765603      0.8089653099073125
3.69E9                   -0.34227615762731445     0.8401655680055158
3.72E9                   -0.2687810831313255      0.8651201846556997
3.75E9                   -0.19349606320844082     0.8836596357265212
3.78E9                   -0.11697972317195351     0.8956621924664545
3.81E9                   -0.03979819292633664     0.9010546490056177
3.84E9                   0.037479095764976655     0.8998126878870134
3.87E9                   0.11428361667059975      0.8919608830083426
3.9E9                    0.19005193003041773      0.8775723418197139
3.93E9                   0.264229806182604        0.8567679911773839
3.96E9                   0.33627626106457953      0.8297155140406858
3.99E9                   0.4056674736093417       0.7966279471068937
4.02E9                   0.4719005556722584       0.7577619527144366
4.05E9                   0.534497147398508        0.713415781209309
4.08E9                   0.5930068126793792       0.6639269429364559
4.11E9                   0.6470102127779569       0.609669610746748
4.14E9                   0.6961220387730851       0.5510517753012188
4.17E9                   0.7399936864423119       0.4885121755154595
4.2E9                    0.7783156588618554       0.42251702654078244
4.23E9                   0.8108196832615189       0.3535565677637622
4.26E9                   0.8372805296622741       0.28214145368026716
4.29E9                   0.8575175196616667       0.20879901207051543
4.32E9                   0.8713957156480507       0.1340693951677356
4.35E9                   0.8788267831303813       0.05850165053882986
4.38E9                   0.879769521429985        -0.017350260851859374
4.41E9                   0.8742300605983169       -0.09293147242623061
4.44E9                   0.8622617242983033       -0.1676902191654418
4.47E9                   0.8439645597943202       -0.2410818181028348
4.5E9                    0.8194845373882877       -0.3125725962097273
4.53E9                   0.7890124230726127       -0.381643739169527
4.56E9                   0.7527823300347859       -0.44779503410700294
4.59E9                   0.7110699571089327       -0.5105484788778009
4.62E9                   0.664190525200247        -0.5694517305093616
4.65E9                   0.6124964257170795       -0.6240813662213393
4.68E9                   0.556374598177299        -0.6740459316149038
4.71E9                   0.4962436566773503       -0.7189887528472467
4.74E9                   0.43255078742173725      -0.7585904916772247
4.77E9                   0.3657684408043819       -0.7925714252690155
4.8E9                    0.29639084279404154      -0.8206934349281231
4.83E9                   0.22493035091421199      -0.8427616903618933
4.86E9                   0.1519136802896938       -0.8586260180361237
4.89E9                   0.07787802621795681      -0.8681819435739693
4.92E9                   0.0033671100434242264    -0.87137139993475
4.95E9                   -0.0710728233664634      -0.8681830947015865
4.98E9                   -0.14489702751444647     -0.8586525320399581
5.01E9                   -0.21756626532732223     -0.8428616874155317
5.04E9                   -0.2885507787074215      -0.8209383360033226
5.07E9                   -0.3573341855460501      -0.7930550388046274
5.1E9                    -0.42341727354984116     -0.7594277936533561
5.13E9                   -0.4863216607673903      -0.7203143615582817
5.16E9                   -0.5455932940983302      -0.6760122819112983
5.19E9                   -0.6008057586036445      -0.6268565931835798
5.22E9                   -0.6515633730513883      -0.573217277976744
5.25E9                   -0.6975040493714627      -0.5154964531805556
5.28E9                   -0.738301896065943       -0.4541253270332332
5.31E9                   -0.7736695474495916      -0.3895609456294806
5.34E9                   -0.8033602018072877      -0.32228275224533354
5.37E9                   -0.8271693525647166      -0.25278898455631893
5.4E9                    -0.8449361981920694      -0.1815929364447282
5.43E9                   -0.8565447185796086      -0.10921911365744477
5.46E9                   -0.8619244087259479      -0.03619931439914455
5.49E9                   -0.8610506641964417      0.03693133281492465
5.52E9                   -0.8539448166425236      0.1096383411173441
5.55E9                   -0.840673821548966       0.1813918142446802
5.58E9                   -0.821349604154484       0.25167034077876654
5.61E9                   -0.7961280728366408      0.31996480350773276
5.64E9                   -0.7652078121027893      0.3857820758459547
5.67E9                   -0.7288284693414853      0.44864857998633456
5.7E9                    -0.6872688503879787      0.5081136838634123
5.73E9                   -0.6408447390987627      0.5637529157629347
5.76E9                   -0.5899064560845313      0.6151709758963904
5.79E9                   -0.5348361727770902      0.6620045235801815
5.82E9                   -0.47604499944502954     0.7039247182224305
5.85E9                   -0.41396986990218426     0.7406394927908444
5.88E9                   -0.3490702495877369      0.7718955414262564
5.91E9                   -0.2818246965891156      0.79748000726804
5.94E9                   -0.21272730572009202     0.8172218617474392
5.97E9                   -0.14228406491544804     0.8309929707740805
6.0E9                    -0.07100915114018634     0.8387088462795789
