% Model:              three_layers reality at 0.1mm.mph
% Version:            COMSOL 5.6.0.280
% Date:               Feb 22 2022, 11:31
% Table:              表格 1 - 全局计算 1
% freq (Hz)              real(emw.S11) (1)        imag(emw.S11) (1)
300000000                0.569280115412367        -0.765604071367083
330000000                0.49682953860904266      -0.8132520510985333
360000000                0.42052667195834736      -0.8541898778430363
390000000                0.34096486263533915      -0.8880974132319506
420000000                0.25877062641202125      -0.9147070725945
450000000                0.17459732659228672      -0.9338075599080153
480000000                0.08911896466720481      -0.9452467164159611
510000000                0.003024009054481347     -0.9489336261119162
540000000                -0.0829907712982104      -0.9448400529404877
570000000                -0.16822647219002623     -0.9330012481329624
600000000                -0.2519882052147095      -0.9135161475393571
630000000                -0.333591205798474       -0.8865469700080887
660000000                -0.4123668615485039      -0.852318224801622
690000000                -0.48766861745112805     -0.81111513643167
720000000                -0.5588777093381684      -0.7632814982383742
750000000                -0.6254086752309107      -0.7092169700592663
780000000                -0.6867145923519038      -0.6493738404802047
810000000                -0.7422919880138874      -0.584253279708736
840000000                -0.7916853735987666      -0.5144011152139478
870000000                -0.8344913535652184      -0.440403167766476
900000000                -0.8703622644077961      -0.3628801919063011
930000000                -0.8990093034183557      -0.2824824692648535
960000000                -0.9202051117685521      -0.1998841090765846
990000000                -0.9337857828635736      -0.11577711345337949
1020000000               -0.9396522732568693      -0.03086526903288768
1050000000               -0.9377712006369623      0.054142071366208536
1080000000               -0.9281750207817778      0.13853625149154233
1110000000               -0.910961583031686       0.22161555299313723
1140000000               -0.8862930714797141      0.30269134977375467
1170000000               -0.8543943465419682      0.3810941115295363
1200000000               -0.8155507089384599      0.45617919467244605
1230000000               -0.7701051146816136      0.527332362799149
1260000000               -0.718454876221631       0.5939749824252986
1290000000               -0.6610478901149159      0.6555688451989549
1320000000               -0.5983784366879997      0.7116205729191216
1350000000               -0.5309826009858475      0.7616855679192777
1380000000               -0.45943336731537293     0.8053714777056901
1410000000               -0.38433544213540893     0.8423411491635403
1440000000               -0.30631986106497755     0.8723150544022649
1470000000               -0.2260384364968788      0.8950731767279131
1500000000               -0.14415810162553397     0.9104563516827092
1530000000               -0.061355205859283404    0.9183670640396402
1560000000               0.0216901854246224       0.9187697073603772
1590000000               0.10429993608158271      0.9116903178884203
1620000000               0.18580338168035695      0.8972157992377167
1650000000               0.26554272474439283      0.8754926583948857
1680000000               0.3428782417607975       0.8467252771657479
1710000000               0.4171932648575073       0.8111737460729018
1740000000               0.48789890476289455      0.769151290159702
1770000000               0.5544384856640185       0.7210213179401462
1800000000               0.6162916662351897       0.6671941261821984
1830000000               0.6729782249828077       0.6081232940872502
1860000000               0.7240614916621525       0.5443018008447954
1890000000               0.7691514097593516       0.4762579009393707
1920000000               0.8079072185953117       0.4045507911626401
1950000000               0.8400397464962777       0.3297661031319024
1980000000               0.8653133097148334       0.25251125415784464
2010000000               0.8835472146402324       0.1734106883136768
2040000000               0.8946168637513541       0.09310103795663653
2070000000               0.8984544685092314       0.012226233163515919
2100000000               0.8950493743546585       -0.0685674169458441
2130000000               0.8844480035457103       -0.14863615273471031
2.16E9                   0.8667534185969352       -0.2273436913467508
2.19E9                   0.8421244997768895       -0.30406614918613895
2.22E9                   0.8107747110609562       -0.37819695901745143
2.25E9                   0.7729703995549073       -0.4491517694862225
2.28E9                   0.7290285436400943       -0.5163732728812217
2.31E9                   0.6793138646302332       -0.579335825753269
2.34E9                   0.6242352932291401       -0.6375496287479732
2.37E9                   0.5642419604952025       -0.6905641987819213
2.4E9                    0.4998190901113292       -0.737971007296552
2.43E9                   0.43148421424413697      -0.7794054784043183
2.46E9                   0.3597838752501952       -0.8145488289400915
2.49E9                   0.28529054558282535      -0.8431302035142315
2.52E9                   0.20859925395865384      -0.8649291905243178
2.55E9                   0.13032353853587805      -0.8797784111220741
2.58E9                   0.05109068660970664      -0.8875657471582414
2.61E9                   -0.02846352388159854     -0.888235912836135
2.64E9                   -0.10770030743544101     -0.8817912850109597
2.67E9                   -0.18598337570476675     -0.8682920431383915
2.7E9                    -0.2626843540397458      -0.8478557097543068
2.73E9                   -0.3371880623629114      -0.8206561677664214
2.76E9                   -0.40889763881646657     -0.78692220272722
2.79E9                   -0.47723948831331403     -0.7469355966044318
2.82E9                   -0.5416680328475735      -0.7010287884623017
2.85E9                   -0.6016702336455879      -0.649582114720649
2.88E9                   -0.6567698503011142      -0.5930206437693986
2.91E9                   -0.7065313993815006      -0.5318106242941923
2.94E9                   -0.7505637745397         -0.4664555721066088
2.97E9                   -0.7885234914167525      -0.3974920258140242
3.0E9                    -0.8201175232551159      -0.3254850068447805
3.03E9                   -0.8451056967299007      -0.2510232240942032
3.06E9                   -0.8633026219944757      -0.17471406751315888
3.09E9                   -0.8745791360739885      -0.0971784382083734
3.12E9                   -0.87886324433233        -0.01904546522642092
3.15E9                   -0.8761405507171273      0.05905283928056833
3.18E9                   -0.866454173578695       0.1364869341564637
3.21E9                   -0.8499041498796172      0.21263506048274816
3.24E9                   -0.826646336329798       0.2868884591156148
3.27E9                   -0.7968908212004369      0.3586564454764536
3.3E9                    -0.7608998651931753      0.4273712949372647
3.33E9                   -0.7189853937293598      0.49249289476485814
3.36E9                   -0.6715060665004763      0.5535131211753671
3.39E9                   -0.6188639533523479      0.6099599024144553
3.42E9                   -0.5615008487476271      0.6614009310303944
3.45E9                   -0.49989426064304104     0.7074469905401759
3.48E9                   -0.4345531137673961      0.7477548640371977
3.51E9                   -0.366013212190076       0.782029795350804
3.54E9                   -0.2948325114704213      0.810027477841852
3.57E9                   -0.2215862560367543      0.8315555523604902
3.6E9                    -0.14686204161061786     0.8464746045669639
3.63E9                   -0.07125486440331752     0.8546986622697406
3.66E9                   0.0046377823787111085    0.8561952045382324
3.69E9                   0.08022070847754109      0.8509847047365311
3.72E9                   0.15490567337469463      0.8391397381510105
3.75E9                   0.22811583816345618      0.82078369139002
3.78E9                   0.29928998923177236      0.7960891156979806
3.81E9                   0.3678865102352852       0.7652757701288989
3.84E9                   0.43338709043261425      0.7286084023635536
3.87E9                   0.49530017117707104      0.6863943125996199
3.9E9                    0.5531641453919856       0.6389807373116803
3.93E9                   0.6065503333810647       0.5867520744304023
3.96E9                   0.6550657577892971       0.5301269529166305
3.99E9                   0.698355729810288        0.46955513351529565
4.02E9                   0.736106240321854        0.4055142197263113
4.05E9                   0.7680461298227819       0.33850616160716546
4.08E9                   0.7939489961932082       0.2690535489777379
4.11E9                   0.8136347941624678       0.19769570972903872
4.14E9                   0.8269710852998821       0.12498464788492576
4.17E9                   0.8338739102690962       0.05148086914950692
4.2E9                    0.8343082713782665       -0.022250852789225894
4.23E9                   0.8282882289538961       -0.09564571850890068
4.26E9                   0.8158766262578617       -0.16814311106314928
4.29E9                   0.797184462893096        -0.23919073833671642
4.32E9                   0.7723699360971484       -0.3082486874478044
4.35E9                   0.7416371647221031       -0.3747933756321786
4.38E9                   0.7052346048212063       -0.4383213837664801
4.41E9                   0.6634531610733462       -0.49835315661777857
4.44E9                   0.6166239965668631       -0.5544365492785597
4.47E9                   0.5651160449535096       -0.6061501944397594
4.5E9                    0.5093332332280041       -0.6531066613811122
4.53E9                   0.44971142912437934      -0.6949553760155326
4.56E9                   0.3867151333910435       -0.731385272010368
4.59E9                   0.32083394306356716      -0.7621271459646941
4.62E9                   0.2525788164142247       -0.7869556945271343
4.65E9                   0.182478172739285        -0.8056912175979103
4.68E9                   0.11107385981617686      -0.8182009782500309
4.71E9                   0.0389170187487343       -0.8244002150722203
4.74E9                   -0.03343612888518077     -0.824252804595591
4.77E9                   -0.1054285507337605      -0.8177715695208421
4.8E9                    -0.17650671029306242     -0.8050182236236489
4.83E9                   -0.2461248864723543      -0.7861029391001007
4.86E9                   -0.3137494738562618      -0.7611835200232141
4.89E9                   -0.37886322120942745     -0.7304641688248309
4.92E9                   -0.4409693572346569      -0.6941938415554514
4.95E9                   -0.49959554825923425     -0.6526642005817656
4.98E9                   -0.5542976340332477      -0.6062071875825007
5.01E9                   -0.6046630949498679      -0.5551922525414387
5.04E9                   -0.6503142156979487      -0.5000232834680035
5.07E9                   -0.6909109247008081      -0.4411352849443363
5.1E9                    -0.7261533026853458      -0.3789908502796179
5.13E9                   -0.7557837637996614      -0.3140764624987784
5.16E9                   -0.7795889153276124      -0.2468986462462385
5.19E9                   -0.7974010955199147      -0.1779799812892083
5.22E9                   -0.809099575728126       -0.1078549845467981
5.25E9                   -0.8146113992621413      -0.03706587530898036
5.28E9                   -0.8139118235698608      0.033841744216114814
5.31E9                   -0.8070243397860166      0.10432324119378096
5.34E9                   -0.7940202631611233      0.17383927316903128
5.37E9                   -0.7750179115267213      0.24186001523553738
5.4E9                    -0.750181406903282       0.3078692451606565
5.43E9                   -0.719719141241512       0.3713682587651338
5.46E9                   -0.6838819410079575      0.4318796054489193
5.49E9                   -0.6429609519075039      0.4889506427304146
5.52E9                   -0.597285251056013       0.5421569076182596
5.55E9                   -0.547219184533263       0.5911052939710152
5.58E9                   -0.4931594258133144      0.6354370127161195
5.61E9                   -0.4355317553806992      0.6748302994805377
5.64E9                   -0.3747875729535209      0.7090028248336409
5.67E9                   -0.31140016991695085     0.7377137583515151
5.7E9                    -0.24586080822960366     0.7607654418761531
5.73E9                   -0.1786746689628405      0.7780046412843581
5.76E9                   -0.11035674244180758     0.789323368794637
5.79E9                   -0.041427727266956364    0.7946592933433247
5.82E9                   0.027590012485683425     0.7939957752909704
5.85E9                   0.09617640707825661      0.7873615660454387
5.88E9                   0.16381755257281638      0.7748302025241469
5.91E9                   0.23000949527945702      0.7565191083094697
5.94E9                   0.29426192390403544      0.7325883981463482
5.97E9                   0.3561017505986964       0.7032393767516337
6.0E9                    0.41507654927968823      0.6687127271121978
