% Model:              three_layers reality at 0.1mm.mph
% Version:            COMSOL 5.6.0.280
% Date:               Feb 22 2022, 19:28
% Table:              表格 1 - 全局计算 1
% freq (Hz)              real(emw.S11) (1)        imag(emw.S11) (1)
300000000                0.44812305702223676      -0.7272442822235328
330000000                0.37445271221589227      -0.7645949800174003
360000000                0.2978926378251021       -0.7947207715618108
390000000                0.21911695288665795      -0.8173905230789341
420000000                0.13882486495869736      -0.8324392995401534
450000000                0.05773216002980952      -0.8397702360176146
480000000                -0.023436791394451185    -0.8393556322400629
510000000                -0.10395667627218863     -0.8312372976211737
540000000                -0.18310859898085888     -0.815526170846275
570000000                -0.2601871766535         -0.7924012379676347
600000000                -0.3345073586435346      -0.7621077747421516
630000000                -0.40541094126545013     -0.7249549422124252
660000000                -0.4722727414161114      -0.6813127681222673
690000000                -0.5345063873288781      -0.6316085512508695
720000000                -0.5915696844842112      -0.576322729824133
750000000                -0.642969515492035       -0.5159842593651623
780000000                -0.6882662351278994      -0.45116554951778076
810000000                -0.7270775257605715      -0.3824770126048582
840000000                -0.7590816824743405      -0.3105612801744706
870000000                -0.7840203025120703      -0.23608714618456622
900000000                -0.8017003590595353      -0.15974329766355821
930000000                -0.8119956452755632      -0.08223189514756032
960000000                -0.8148475805453623      -0.004262065895373354
990000000                -0.8102653770077031      0.07345662662766343
1020000000               -0.79832557067298        0.15022067430212918
1050000000               -0.7791709274707695      0.22533901497682216
1080000000               -0.7530087405574012      0.2981392621860404
1110000000               -0.7201085409321111      0.3679737160047663
1140000000               -0.680799248813566       0.4342251001985498
1170000000               -0.6354657983876522      0.49631197390310694
1200000000               -0.584545273121033       0.5536937701900755
1230000000               -0.5285225931715605      0.6058754179071678
1260000000               -0.4679258000864396      0.6524115079669399
1290000000               -0.4033209872889456      0.692909970085887
1320000000               -0.3353069273964612      0.7270352313075441
1350000000               -0.2645094497688403      0.7545108328002741
1380000000               -0.19157562294420993     0.7751214871756136
1410000000               -0.11716779788628014     0.788714563914976
1440000000               -0.04195756816484941     0.7952009962202843
1470000000               0.03338029678502465      0.7945556080195741
1500000000               0.10817388993357416      0.7868168653296723
1530000000               0.18176012225331972      0.7720860614145901
1560000000               0.25349054302736124      0.750525950235379
1590000000               0.32273697448279537      0.7223588475087013
1620000000               0.3888969128748821       0.6878642232342885
1650000000               0.45139865107307475      0.6473758137792022
1680000000               0.5097060810869755       0.6012782855310599
1710000000               0.5633231386305226       0.5500034856167022
1740000000               0.6117978557185823       0.4940263184502218
1770000000               0.6547259917133993       0.43386028952073297
1800000000               0.6917542176996339       0.370052760302683
1830000000               0.7225828340859458       0.3031799598997358
1860000000               0.7469680064628652       0.23384180054315076
1890000000               0.7647235104733536       0.16265654459497578
1920000000               0.7757219824432323       0.0902553706884858
1950000000               0.7798956790954794       0.017276885252921387
1980000000               0.7772367566373632       -0.0556383773110589
2010000000               0.7677970866471594       -0.12785342812235376
2040000000               0.7516876326922891       -0.19874024266437118
2070000000               0.7290774156575243       -0.2676851112104234
2100000000               0.7001920934861211       -0.33409392878834676
2130000000               0.6653121654330469       -0.3973974607971519
2.16E9                   0.624770770670926        -0.4570566510550448
2.19E9                   0.5789509724390726       -0.5125680551356915
2.22E9                   0.5282822940651052       -0.5634694471264909
2.25E9                   0.47323612585141017      -0.6093454998418243
2.28E9                   0.41431954861380654      -0.6498331130317611
2.31E9                   0.35206732015865083      -0.6846254815016137
2.34E9                   0.28703246595969695      -0.7134736101901639
2.37E9                   0.21977704545095716      -0.7361842394711776
2.4E9                    0.15086552329184022      -0.7526144989866785
2.43E9                   0.0808626238653904       -0.7626656172817068
2.46E9                   0.010335262413819636     -0.7662790670163229
2.49E9                   -0.06014435840405348     -0.7634372640593636
2.52E9                   -0.12999795034734518     -0.7541681183363322
2.55E9                   -0.19864433106639157     -0.7385506900799346
2.58E9                   -0.26550595174781294     -0.7167192833000325
2.61E9                   -0.3300169231204831      -0.6888647735507633
2.64E9                   -0.3916308911175289      -0.6552333674655971
2.67E9                   -0.4498278939264835      -0.616123616562056
2.7E9                    -0.5041200068118076      -0.5718824886053214
2.73E9                   -0.5540559245860693      -0.5229010263098218
2.76E9                   -0.5992247171975567      -0.46960985840171277
2.79E9                   -0.6392589563287209      -0.41247465906118824
2.82E9                   -0.6738373420299191      -0.35199157035404194
2.85E9                   -0.702686898821043       -0.28868257540657777
2.88E9                   -0.7255847705403671      -0.22309080970405076
2.91E9                   -0.7423596201155551      -0.15577580751371672
2.94E9                   -0.752892629284577       -0.08730869181208567
2.97E9                   -0.7571180895466633      -0.0182673261251062
3.0E9                    -0.7550235761840887      0.050768545517803965
3.03E9                   -0.7466497001906144      0.11922213885826896
3.06E9                   -0.7320894372411715      0.18652441464648084
3.09E9                   -0.7114870377913534      0.25211877192584864
3.12E9                   -0.6850365275098369      0.31546561228356196
3.15E9                   -0.6529798120655096      0.37604673941636374
3.18E9                   -0.6156044043035636      0.43336956104289864
3.21E9                   -0.5732407945506289      0.486971063905973
3.24E9                   -0.526259485830151       0.5364215363897431
3.27E9                   -0.4750677149683812      0.581328016694673
3.3E9                    -0.42010587842770875     0.621337446109915
3.33E9                   -0.36184367897916686     0.6561395062747799
3.36E9                   -0.30077600737018795     0.6854691158440049
3.39E9                   -0.23741857349225937     0.709108555948925
3.42E9                   -0.1723033057271781      0.726889186269843
3.45E9                   -0.10597354622391784     0.7386927061435515
3.48E9                   -0.038979084516133966    0.7444519103571652
3.51E9                   0.0281289089806096       0.7441508902739535
3.54E9                   0.09480296656277379      0.7378246403528885
3.57E9                   0.16050432155143232      0.7255580497810538
3.6E9                    0.22470770696400708      0.7074842878704384
3.63E9                   0.2869058401232968       0.6837826260977649
3.66E9                   0.3466134924409081       0.6546757727117635
3.69E9                   0.40337106823652785      0.6204268214951517
3.72E9                   0.45674764670988566      0.581335931473132
3.75E9                   0.5063434718579686       0.5377368607412375
3.78E9                   0.5517919054341229       0.48999347899609536
3.81E9                   0.5927608919163107       0.4384963807285471
3.84E9                   0.6289540252840067       0.38365970884408296
3.87E9                   0.6601113519152548       0.325918266074957
3.9E9                    0.6860100775660958       0.26572493181753126
3.93E9                   0.7064653488973396       0.20354832037286205
3.96E9                   0.721331236706584        0.13987053413203251
3.99E9                   0.7305019614265934       0.0751848116343586
4.02E9                   0.7339132940225611       0.009992868985028816
4.05E9                   0.7315439707785206       -0.055198211631959086
4.08E9                   0.7234169079588203       -0.11987959746091473
4.11E9                   0.7096000051245096       -0.18354477104420763
4.14E9                   0.6902063773100761       -0.24569390829358628
4.17E9                   0.6653939360277307       -0.30583838573425715
4.2E9                    0.6353643221857063       -0.3635052332099069
4.23E9                   0.6003612596438977       -0.4182413833748422
4.26E9                   0.560668433747173        -0.46961762438020616
4.29E9                   0.5166070026569346       -0.517232218733287
4.32E9                   0.4685328272660074       -0.5607141942586299
4.35E9                   0.4168334707943139       -0.599726333575863
4.38E9                   0.36192498594146816      -0.6339678862071922
4.41E9                   0.3042484863911723       -0.6631770093321849
4.44E9                   0.24426649489254812      -0.6871329195575641
4.47E9                   0.182459070154963        -0.7056577183882673
4.5E9                    0.11931973359237064      -0.7186178440741957
4.53E9                   0.05535123829398288      -0.7259251036587092
4.56E9                   -0.008938758732091578    -0.727537250225025
4.59E9                   -0.07304204735850686     -0.7234580890844258
4.62E9                   -0.1364541606736303      -0.713737120157975
4.65E9                   -0.19867854626920778     -0.6984687480860179
4.68E9                   -0.259230560228596       -0.6777911112165175
4.71E9                   -0.31764125846139246     -0.6518845889657299
4.74E9                   -0.3734609882665182      -0.6209700393767913
4.77E9                   -0.4262628021405256      -0.5853067954219636
4.8E9                    -0.4756457168823334      -0.5451904175072207
4.83E9                   -0.5212378215572885      -0.5009501735153472
4.86E9                   -0.56269920446209        -0.4529462087357849
4.89E9                   -0.5997246347734161      -0.401566381555637
4.92E9                   -0.6320459122546334      -0.34722277334079754
4.95E9                   -0.6594337964172837      -0.29034792247308144
4.98E9                   -0.681699445999877       -0.23139087145741835
5.01E9                   -0.6986953365187439      -0.1708131424214273
5.04E9                   -0.7103156705189158      -0.10908476387117537
5.07E9                   -0.7164963430086781      -0.046680456228458296
5.1E9                    -0.7172145620809466      0.015923954192135617
5.13E9                   -0.7124882398449648      0.07825487822723359
5.16E9                   -0.7023752517833711      0.13984410770958997
5.19E9                   -0.6869726131945966      0.20023184523983614
5.22E9                   -0.6664155537788292      0.2589697091712868
5.25E9                   -0.6408764134143745      0.3156237628663632
5.28E9                   -0.610563262779707       0.36977754676455565
5.31E9                   -0.5757181846963548      0.4210350239143341
5.34E9                   -0.5366152221662507      0.4690233190014519
5.37E9                   -0.4935580725908073      0.5133951535020401
5.4E9                    -0.44687764908554106     0.553830943489351
5.43E9                   -0.3969296221970622      0.5900406004513544
5.46E9                   -0.3440920062817126      0.6217651273055167
5.49E9                   -0.28876278812909667     0.6487781143279627
5.52E9                   -0.23135753645910484     0.6708872141604181
5.55E9                   -0.17230689637213353     0.6879356247868884
5.58E9                   -0.11205386810297267     0.6998035509366094
5.61E9                   -0.05105079226086087     0.7064095613879506
5.64E9                   0.010243991294409938     0.7077117219242398
5.67E9                   0.07136978362162694      0.703708369332726
5.7E9                    0.13186737361299913      0.6944384083769776
5.73E9                   0.1912829466601796       0.6799810646329656
5.76E9                   0.24917189098054104      0.6604551032937636
5.79E9                   0.30510236719533634      0.6360176028944866
5.82E9                   0.3586585792959742       0.6068624196470006
5.85E9                   0.40944376993762116      0.5732184698181707
5.88E9                   0.4570830202332221       0.5353478999599663
5.91E9                   0.5012259400639018       0.4935441398790985
5.94E9                   0.5415492951353528       0.4481297780293688
5.97E9                   0.577759558424963        0.39945418315088266
6.0E9                    0.6095953238515328       0.34789081576531206
