% Model:              three_layers reality at 0.1mm.mph
% Version:            COMSOL 5.6.0.280
% Date:               Feb 21 2022, 15:53
% Table:              表格 1 - 全局计算 1
% freq (Hz)              real(emw.S11) (1)        imag(emw.S11) (1)
300000000                0.5972374266413262       -0.7269533887677687
330000000                0.5317578299536369       -0.7753507572652562
360000000                0.462468933983752        -0.817932308875006
390000000                0.38987411818733         -0.8543946218321395
420000000                0.31450337787521687      -0.8844786347089935
450000000                0.2369087541803621       -0.9079717717913911
480000000                0.1576598107007694       -0.9247096828801449
510000000                0.07733910858355203      -0.9345775956359351
540000000                -0.0034623336734643574   -0.937511277087081
570000000                -0.0841495928877011      -0.9334976017121788
600000000                -0.16412838985534928     -0.9225747241396184
630000000                -0.24280961260098916     -0.9048318566984905
660000000                -0.31961378804783336     -0.8804086539709903
690000000                -0.3939754728919283      -0.8494942091605359
720000000                -0.4653475340030697      -0.8123256696139033
750000000                -0.5332052874379206      -0.7691864817273432
780000000                -0.5970504654383859      -0.7204042782469253
810000000                -0.6564149814013113      -0.666348423852699
840000000                -0.7108644640784935      -0.6074272373966091
870000000                -0.7600015327172648      -0.544084912715236
900000000                -0.803468788222343       -0.4767981611817666
930000000                -0.8409514960262687      -0.40607260267447887
960000000                -0.8721799394283413      -0.3324389334329696
990000000                -0.896931424811262       -0.2564489008935367
1020000000               -0.915031922621682       -0.17867111791055412
1050000000               -0.926357331343014       -0.09968674949414065
1080000000               -0.9308343545829258      -0.020085106976839635
1110000000               -0.9284409848459436      0.0595408153802742
1140000000               -0.9192065907685061      0.13859882536048182
1170000000               -0.9032116079956687      0.21650200358445845
1200000000               -0.8805868372342984      0.29267312437901605
1230000000               -0.8515123562783945      0.3665489918085314
1260000000               -0.816216056066871       0.4375846565302481
1290000000               -0.7749718139230164      0.5052574805341886
1320000000               -0.728097320044294       0.5690710183487062
1350000000               -0.6759515760299474      0.6285586850401053
1380000000               -0.6189320870334577      0.6832871830605968
1410000000               -0.5574717711044347      0.732859662797428
1440000000               -0.4920356115554155      0.7769185936731747
1470000000               -0.4231170801281236      0.8151483252869254
1500000000               -0.35123435989215585     0.8472773210684891
1530000000               -0.27692639852307316     0.8730800494005062
1560000000               -0.20074882312751507     0.8923785203487329
1590000000               -0.12326974889285794     0.9050434588262846
1620000000               -0.04506551382340636     0.9109951081489037
1650000000               0.03328362760471428      0.9102036606940506
1680000000               0.11119781963128013      0.9026893153582831
1710000000               0.1881018968850885       0.8885219642384943
1740000000               0.2634296213012931       0.8678205136997663
1770000000               0.33662783342183045      0.8407518475969784
1800000000               0.4071604885527542       0.8075294428908167
1830000000               0.47451254928570247      0.7684116502764385
1860000000               0.538193707450536        0.7236996545892466
1890000000               0.597741909851153        0.6737351319136061
1920000000               0.6527266641016688       0.6188976220912789
1950000000               0.702752102431862        0.5596016371878406
1980000000               0.7474597834341008       0.4962935279159146
2010000000               0.7865312136000537       0.42944813153055245
2040000000               0.8196900727938168       0.35956522568059635
2070000000               0.8467041297963679       0.2871658139222256
2100000000               0.8673868365391958       0.21278826888079483
2130000000               0.8815985916593079       0.13698435958556984
2.16E9                   0.8892476660060219       0.060315189330278574
2.19E9                   0.8902907841712939       -0.01665293021442767
2.22E9                   0.8847333563948347       -0.093352643210099
2.25E9                   0.8726293543102334       -0.16921972608829156
2.28E9                   0.8540808223097639       -0.243697247146192
2.31E9                   0.8292370165087637       -0.316239672395529
2.34E9                   0.7982931703854395       -0.38631687018952343
2.37E9                   0.7614889045218529       -0.4534179602413857
2.4E9                    0.7191063227901211       -0.5170549621024724
2.43E9                   0.671467850932713        -0.576766228419466
2.46E9                   0.6189338575108231       -0.6321196823183657
2.49E9                   0.5619000569727074       -0.6827158872043309
2.52E9                   0.5007946652939234       -0.7281909483772822
2.55E9                   0.4360752833840549       -0.7682192074976257
2.58E9                   0.3682255147587423       -0.8025156723028952
2.61E9                   0.29775135240875095      -0.8308381333979753
2.64E9                   0.2251773818685198       -0.8529889400536907
2.67E9                   0.15104284466241788      -0.8688164236730052
2.7E9                    0.0758975995578906       -0.8782159653984124
2.73E9                   2.9801349421809675E-4    -0.8811307065559664
2.76E9                   -0.07519718824175943     -0.8775519007350351
2.79E9                   -0.1500310837666321      -0.8675189066482993
2.82E9                   -0.2236526985884785      -0.8511188219962147
2.85E9                   -0.2955211017742556      -0.8284857605312939
2.88E9                   -0.365109423854665       -0.7997997769251877
2.91E9                   -0.43190876598674977     -0.7652854467577728
2.94E9                   -0.49543197029686087     -0.7252101118054249
2.97E9                   -0.5552172222806687      -0.6798818035417434
3.0E9                    -0.6108314571042662      -0.6296468605609844
3.03E9                   -0.6618735430933771      -0.5748872583193468
3.06E9                   -0.7079772175693164      -0.5160176719589467
3.09E9                   -0.7488137520834731      -0.4534822953301955
3.12E9                   -0.7840943262737525      -0.3877514415049718
3.15E9                   -0.8135720921633958      -0.3193179517695639
3.18E9                   -0.8370439132400715      -0.24869344174447172
3.21E9                   -0.8543517654118102      -0.1764044146566785
3.24E9                   -0.8653837898907721      -0.10298827257301697
3.27E9                   -0.8700749908771734      -0.028989257249678525
3.3E9                    -0.8684075738762278      0.045045647267169614
3.33E9                   -0.8604109234192804      0.1185708183699743
3.36E9                   -0.8461612217677588      0.191046072697038
3.39E9                   -0.8257807130383337      0.2619406864598509
3.42E9                   -0.799436619917892       0.3307373270965426
3.45E9                   -0.7673397228749845      0.39693586584975066
3.48E9                   -0.7297426145391588      0.46005704167341066
3.51E9                   -0.6869376445522444      0.5196459482866863
3.54E9                   -0.6392545730398355      0.5752753173481887
3.57E9                   -0.5870579533669033      0.6265485728553951
3.6E9                    -0.5307442674929869      0.6731026338776593
3.63E9                   -0.47073883931525445     0.714610445576088
3.66E9                   -0.40749255322076766     0.7507832213644675
3.69E9                   -0.3414784062009355      0.7813723822988046
3.72E9                   -0.27318792274633835     0.8061711828705008
3.75E9                   -0.20312746192183262     0.8250160155766045
3.78E9                   -0.13181444615552548     0.8377873896035468
3.81E9                   -0.05977354069332286     0.8444105820459872
3.84E9                   0.012467187972088567     0.8448559629036204
3.87E9                   0.0843801081542301       0.8391389977517782
3.9E9                    0.15544182875511972      0.8273199337480789
3.93E9                   0.2251369518485829       0.8095031755951214
3.96E9                   0.2929617507818657       0.7858363581268897
3.99E9                   0.35842775255450143      0.7565091219774227
4.02E9                   0.4210652026967829       0.7217515989776514
4.05E9                   0.48042638964350587      0.68183261510507
4.08E9                   0.5360888044793847       0.637057621197819
4.11E9                   0.587658111757522        0.5877663648806043
4.14E9                   0.6347709080509571       0.5343303206846581
4.17E9                   0.6770972468820144       0.47714989869559155
4.2E9                    0.7143429117645308       0.4166514543863559
4.23E9                   0.74625142218283         0.3532841239219926
4.26E9                   0.7726057605213722       0.287516509851868
4.29E9                   0.7932298107555784       0.2198332418572113
4.32E9                   0.8079895016989206       0.15073143701601302
4.35E9                   0.8167936492336217       0.08071708362764848
4.38E9                   0.8195944932003378       0.010301372449712977
4.41E9                   0.8163879257562745       -0.06000300031912098
4.44E9                   0.8072134094626275       -0.12968553363817287
4.47E9                   0.792153585055392        -0.19824160049226736
4.5E9                    0.7713335709402263       -0.2651760791288682
4.53E9                   0.7449199587609492       -0.3300069108105567
4.56E9                   0.7131195118969264       -0.39226855817855766
4.59E9                   0.6761775762156532       -0.451515339080596
4.62E9                   0.6343762149036153       -0.5073246115405949
4.65E9                   0.5880320813867419       -0.5592997870601281
4.68E9                   0.5374940462651692       -0.6070731510252916
4.71E9                   0.48314059556813443      -0.65030847087524
4.74E9                   0.4253770187302728       -0.6887033742502345
4.77E9                   0.3646324053172716       -0.7219914808097583
4.8E9                    0.30135647055542913      -0.7499442722214207
4.83E9                   0.2360162308556788       -0.7723726856973379
4.86E9                   0.16909255243377183      -0.7891284173389468
4.89E9                   0.10107659817357001      -0.800104923160183
4.92E9                   0.03246620010482744      -0.8052381079401658
4.95E9                   -0.036237813491362306    -0.8045066951715267
4.98E9                   -0.10453530625127848     -0.7979322749402101
5.01E9                   -0.1719305070734997      -0.7855790303887795
5.04E9                   -0.23793563911215188     -0.7675531470560754
5.07E9                   -0.30207447671509613     -0.7440019125699429
5.1E9                    -0.3638858043651908      -0.7151125165913016
5.13E9                   -0.4229267541598257      -0.6811105623406806
5.16E9                   -0.4787759998774999      -0.6422583016361743
5.19E9                   -0.5310367864959533      -0.5988526055838582
5.22E9                   -0.5793397737952978      -0.5512226836317367
5.25E9                   -0.6233456717721206      -0.4997275655410553
5.28E9                   -0.6627476453615007      -0.4447533640136581
5.31E9                   -0.6972734671306073      -0.3867103398793621
5.34E9                   -0.7266873997846626      -0.32602979554408495
5.37E9                   -0.7507917948360264      -0.26316082477278707
5.4E9                    -0.7694283985766507      -0.1985669471642121
5.43E9                   -0.7824793602217043      -0.13272265453251178
5.46E9                   -0.7898679394273933      -0.06610989459732357
5.49E9                   -0.7915589113787034      7.854840951175165E-4
5.52E9                   -0.7875586680016934      0.06747730248264085
5.55E9                   -0.7779150143062467      0.1334826125767258
5.58E9                   -0.7627166598596017      0.19832522533677543
5.61E9                   -0.742092407178471       0.2615391783095417
5.64E9                   -0.7162100414716551      0.3226721154044988
5.67E9                   -0.6852749296759453      0.38128855030997766
5.7E9                    -0.6495283409632914      0.43697298523039907
5.73E9                   -0.6092455054656357      0.48933285822667466
5.76E9                   -0.5647334320300808      0.5380012957050498
5.79E9                   -0.5163285083081128      0.5826396512463848
5.82E9                   -0.4643939069009595      0.6229398166615732
5.85E9                   -0.4093168197383631      0.6586262948294401
5.88E9                   -0.35150554096376435     0.6894580253079344
5.91E9                   -0.29138641742455534     0.7152299537037046
5.94E9                   -0.22940068653096796     0.7357743351387152
5.97E9                   -0.1660012229235983      0.7509617624184527
6.0E9                    -0.10164921778690933     0.76070191086146
