% Model:              three_layers reality at 0.1mm.mph
% Version:            COMSOL 5.6.0.280
% Date:               Mar 8 2022, 09:13
% Table:              表格 1 - 全局计算 1
% freq (Hz)              real(emw.S11) (1)        imag(emw.S11) (1)
300000000                0.4089873840024414       -0.7772543534939371
330000000                0.32487497495386397      -0.8132242787623277
360000000                0.2378300769003369       -0.8403247120341137
390000000                0.14875340169812112      -0.8583143656980079
420000000                0.05857149857754216      -0.8670457402379409
450000000                -0.03177490244634242     -0.8664674345716851
480000000                -0.12134216956002729     -0.8566251686095865
510000000                -0.20919473254701587     -0.8376615804899701
540000000                -0.29441572236936786     -0.8098148497211325
570000000                -0.3761172397076411      -0.7734161945537683
600000000                -0.45345018389091146     -0.7288862945923621
630000000                -0.5256135634213339      -0.6767306950411272
660000000                -0.591863205240504       -0.6175342560620893
690000000                -0.6515197800095952      -0.5519547189135615
720000000                -0.7039760647667267      -0.48071546833527956
750000000                -0.7487033699652065      -0.4045975787101023
780000000                -0.7852570659897173      -0.32443123849043093
810000000                -0.8132811531509812      -0.24108665414387415
840000000                -0.8325118299726504      -0.15546453959359785
870000000                -0.8427800253122307      -0.0684863020086267
900000000                -0.8440128720773528      0.01891596311354049
930000000                -0.8362341122267486      0.10580955255792364
960000000                -0.8195634352579098      0.1912711968255754
990000000                -0.7942147646907324      0.2743969490221169
1020000000               -0.7604935191661196      0.3543118101922575
1050000000               -0.7187928864745671      0.43017898457820325
1080000000               -0.6695891599874055      0.5012086632832639
1110000000               -0.6134361973120616      0.5666662416887255
1140000000               -0.5509590705246549      0.6258798834244779
1170000000               -0.48284698584561625     0.6782473523749696
1200000000               -0.4098455580872773      0.7232420435877007
1230000000               -0.33274853133396065     0.7604181541533349
1260000000               -0.2523890425465804      0.7894149455554602
1290000000               -0.16963052837682097     0.8099600601416045
1320000000               -0.08535737804197457     0.8218718654782076
1350000000               -4.654364061254413E-4    0.8250608115656237
1380000000               0.08414753863307958      0.8195297970918459
1410000000               0.16759136157719257      0.8053735518172886
1440000000               0.24899274682406053      0.7827770527486431
1470000000               0.32750438111899477      0.7520130018955725
1500000000               0.40231364791850965      0.713438402981772
1530000000               0.4726509160992116       0.6674902833505891
1560000000               0.5377973112775527       0.6146806156059793
1590000000               0.5970918949293201       0.555590500857973
1620000000               0.649938183731419        0.4908636821485911
1650000000               0.6958099494631548       0.42119946237702666
1680000000               0.7342562481426598       0.3473451059344918
1710000000               0.7649056357026404       0.27008780727708154
1740000000               0.7874695364545385       0.1902463127864032
1770000000               0.8017447397956137       0.10866228435867975
1800000000               0.8076150098324508       0.02619149457149213
1830000000               0.8050518021361093       -0.0563050567258575
1860000000               0.7941140911846916       -0.1379700151323974
1890000000               0.7749473216023806       -0.21795844661585334
1920000000               0.7477815055798782       -0.29544643075858124
1950000000               0.7129284979352359       -0.36963939344986857
1980000000               0.6707784885976835       -0.43978010720887895
2010000000               0.6217957593061482       -0.5051562967041949
2040000000               0.5665137555180613       -0.5651077997166771
2070000000               0.5055295236638487       -0.6190332495586031
2100000000               0.43949755400893126      -0.6663962629824117
2130000000               0.36912304494184095      -0.7067311339976035
2.16E9                   0.29515455926238304      -0.7396480385913033
2.19E9                   0.21837597524284594      -0.7648377275220277
2.22E9                   0.13959755944710536      -0.7820755909484467
2.25E9                   0.059645957793747865     -0.7912247838832495
2.28E9                   -0.020646971768437796    -0.7922378091124656
2.31E9                   -0.10045613217275805     -0.7851556919299618
2.34E9                   -0.1789748499737751      -0.7701039728838821
2.37E9                   -0.2554243669660345      -0.7472855845826953
2.4E9                    -0.32905938489908504     -0.7169722300268395
2.43E9                   -0.3991694481158324      -0.6794971557598614
2.46E9                   -0.4650783375803349      -0.6352517644640017
2.49E9                   -0.5261449141087188      -0.5846861191479252
2.52E9                   -0.581767703363704       -0.5283108667657354
2.55E9                   -0.6313929762187884      -0.4666975000510445
2.58E9                   -0.674524280987054       -0.4004752579497294
2.61E9                   -0.7107312789828639      -0.33032478623859246
2.64E9                   -0.7396566745253891      -0.25696967826418404
2.67E9                   -0.7610210002093455      -0.18116707115125139
2.7E9                    -0.7746255428536308      -0.10369808054005798
2.73E9                   -0.7803538170107021      -0.0253584498380248
2.76E9                   -0.778171916428493       0.05305046567056187
2.79E9                   -0.7681279543824998      0.13073037128459042
2.82E9                   -0.7503507088781768      0.20689437914035352
2.85E9                   -0.7250475316584999      0.28077503427635914
2.88E9                   -0.6925015528961029      0.3516320057441912
2.91E9                   -0.6530682052066944      0.41875940967434416
2.94E9                   -0.6071710925018472      0.4814927185926215
2.97E9                   -0.5552972358289167      0.5392152043790652
3.0E9                    -0.49799173668363333     0.5913638600661849
3.03E9                   -0.43585190678411145     0.63743474701124
3.06E9                   -0.36952092123729297     0.6769877178764111
3.09E9                   -0.2996810587503667      0.7096504719427745
3.12E9                   -0.22704659792623502     0.735121906702504
3.15E9                   -0.152356442256189       0.7531747381738136
3.18E9                   -0.07636654799912268     0.7636573712570233
3.21E9                   1.5777122697624435E-4    0.7664950099011345
3.24E9                   0.07644959154862736      0.76169000417066
3.27E9                   0.15174810912288308      0.7493214366703059
3.3E9                    0.22530628831790533      0.7295439539301859
3.33E9                   0.2963983642607286       0.7025858493840395
3.36E9                   0.3643271354233555       0.6687464044620643
3.39E9                   0.42843097794376545      0.6283924944217123
3.42E9                   0.48809050573752677      0.5819544679868969
3.45E9                   0.5427347904376306       0.5299213166261731
3.48E9                   0.5918470444125291       0.4728351624845513
3.51E9                   0.6349696621072639       0.4112851145295974
3.54E9                   0.6717085135578839       0.3459005699402466
3.57E9                   0.7017363933971752       0.2773440691458669
3.6E9                    0.7247955513023072       0.20630384284105815
3.63E9                   0.7406992648087958       0.1334862109870169
3.66E9                   0.7493324577677782       0.05960800196216083
3.69E9                   0.7506514103555543       -0.014610847270884762
3.72E9                   0.744682643071442        -0.08845436878165325
3.75E9                   0.7315210855438338       -0.16121720464329725
3.78E9                   0.7113276633631191       -0.2322107278524638
3.81E9                   0.6843264547304622       -0.30076859713792753
3.84E9                   0.650801579843709        -0.36625174866858806
3.87E9                   0.6110939783998681       -0.4280528894474361
3.9E9                    0.5655981909008381       -0.48560062157685224
3.93E9                   0.5147591831963049       -0.5383633712976582
3.96E9                   0.45906915397862297      -0.5858532976046517
3.99E9                   0.3990641715029837       -0.6276302999927004
4.02E9                   0.33532043222123176      -0.6633061436497596
4.05E9                   0.26844994157915264      -0.692548603141113
4.08E9                   0.1990954843186307       -0.7150854293778273
4.11E9                   0.12792485573940393      -0.7307078971252196
4.14E9                   0.0556244339138436       -0.7392737003933355
4.17E9                   -0.01710774327413436     -0.7407090204677811
4.2E9                    -0.08956918999988749     -0.7350096739760041
4.23E9                   -0.1610602683358474      -0.7222413314809724
4.26E9                   -0.23089139856445584     -0.7025388605963045
4.29E9                   -0.2983900668111361      -0.676104880475957
4.32E9                   -0.3629075636790817      -0.6432076164018712
4.35E9                   -0.42382542268173407     -0.6041781227335369
4.38E9                   -0.48056153962555537     -0.5594069137579532
4.41E9                   -0.5325759465844231      -0.509340018447327
4.44E9                   -0.5793761947142215      -0.4544744656421081
4.47E9                   -0.620522279651325       -0.39535321245812427
4.5E9                    -0.6556310294184566      -0.33255954738741483
4.53E9                   -0.6843798719829345      -0.2667110246001597
4.56E9                   -0.706509908591257       -0.1984530113676502
4.59E9                   -0.7218282383966729      -0.12845195166133372
4.62E9                   -0.7302095074079249      -0.057388461633661694
4.65E9                   -0.73159668648002        0.014049626565796459
4.68E9                   -0.7260011129058185      0.08517416941796181
4.71E9                   -0.7135018503186359      0.15530348781186526
4.74E9                   -0.6942444249707425      0.22376896859146128
4.77E9                   -0.6684389809885514      0.28992147301620125
4.8E9                    -0.6363578689375522      0.3531375431318126
4.83E9                   -0.5983326541076665      0.41282538429368343
4.86E9                   -0.5547505177756369      0.4684305712511215
4.89E9                   -0.5060500350717865      0.5194413886218633
4.92E9                   -0.4527163460441685      0.5653936895193239
4.95E9                   -0.395275782989496       0.6058751494043262
4.98E9                   -0.33429006439570375     0.6405288098455258
5.01E9                   -0.2703502020442105      0.6690558460747772
5.04E9                   -0.20407028405422534     0.6912175458171862
5.07E9                   -0.13608128718157833     0.706836544843898
5.1E9                    -0.06702503517525109     0.7157974141224844
5.13E9                   0.0024516385172924874    0.7180467199082916
5.16E9                   0.0717025314570268       0.7135926694853624
5.19E9                   0.14008757505995534      0.7025044091818567
5.22E9                   0.20697827102687844      0.6849109717500785
5.25E9                   0.2717630967726944       0.660999806777848
5.28E9                   0.3338528437328222       0.6310148031843252
5.31E9                   0.3926857798256183       0.5952537435615824
5.34E9                   0.4477324922471006       0.5540652037036072
5.37E9                   0.4985002885486887       0.5078449908099144
5.4E9                    0.5445371016370825       0.4570322615391126
5.43E9                   0.5854349249568592       0.4021054560936659
5.46E9                   0.6208328622560736       0.3435781337818206
5.49E9                   0.6504198921481056       0.28199472419653654
5.52E9                   0.6739374212974195       0.2179261445743643
5.55E9                   0.6911816459549016       0.15196519692628319
5.58E9                   0.7020056781244932       0.0847216551493542
5.61E9                   0.7063213358464915       0.016816980181588427
5.64E9                   0.704100458657824        -0.05112134605152338
5.67E9                   0.6953755986613406       -0.11846580858706475
5.7E9                    0.6802399625205805       -0.1845950385575946
5.73E9                   0.65884654208399         -0.24889999835241144
5.76E9                   0.6314064596449911       -0.31078997322151547
5.79E9                   0.5981866391135882       -0.36969820914080787
5.82E9                   0.5595069603139038       -0.42508711980749
5.85E9                   0.5157370386005796       -0.47645307650136365
5.88E9                   0.4672927065668375       -0.5233308503953417
5.91E9                   0.4146321962711861       -0.5652977755989812
5.94E9                   0.35825196861424846      -0.6019776531993459
5.97E9                   0.29868212951307366      -0.633044353173055
6.0E9                    0.2364814030756609       -0.6582250219381699
