% Model:              three_layers reality at 0.1mm.mph
% Version:            COMSOL 5.6.0.280
% Date:               Feb 25 2022, 16:02
% Table:              表格 1 - 全局计算 1
% freq (Hz)              real(emw.S11) (1)        imag(emw.S11) (1)
300000000                0.5984200732520654       -0.7369355852209267
330000000                0.5316488453178085       -0.7855953129268363
360000000                0.461039035907687        -0.8282987995640936
390000000                0.3871139789090343       -0.8647350725859136
420000000                0.3104146607892716       -0.8946454515716044
450000000                0.2315070989523708       -0.9178171217385714
480000000                0.15097539518350533      -0.9340867278777291
510000000                0.06941689380602832      -0.9433419144983772
540000000                -0.012562575984653535    -0.9455223664830807
570000000                -0.09435345948772743     -0.9406204140228429
600000000                -0.1753472278281091      -0.9286812085791314
630000000                -0.2549410918448848      -0.9098024747605655
660000000                -0.3325426569243235      -0.8841338442562829
690000000                -0.40757448573434263     -0.8518757792628965
720000000                -0.47947853796013895     -0.8132780955725796
750000000                -0.5477204565001064      -0.7686380972264018
780000000                -0.6117936674169129      -0.7182983377784307
810000000                -0.6712232629595003      -0.6626440258833138
840000000                -0.725569637045759       -0.6021000961330533
870000000                -0.7744318462588111      -0.5371279672532153
900000000                -0.8174506685136642      -0.46822201421264853
930000000                -0.8543113357198293      -0.3959057819396408
960000000                -0.8847459183806117      -0.32072797126911134
990000000                -0.9085353434197279      -0.24325822885166817
1020000000               -0.9255110288879618      -0.16408277551478165
1050000000               -0.935556122892052       -0.08379990776761467
1080000000               -0.9386063369398869      -0.003015409690014711
1110000000               -0.9346503677860917      0.07766208877077511
1140000000               -0.9237299048820747      0.15762576849273655
1170000000               -0.9059392243786221      0.23627525593056875
1200000000               -0.881424374005352       0.31302119843070164
1230000000               -0.8503819565792166      0.38728974347946354
1260000000               -0.8130575231819934      0.45852688650067797
1290000000               -0.7697435906844806      0.5262026520781744
1320000000               -0.7207773005278144      0.5898150771085569
1350000000               -0.6665377397424225      0.6488939636330988
1380000000               -0.6074429465618643      0.7030043738889046
1410000000               -0.5439466264402896      0.7517498405105274
1440000000               -0.4765346059665396      0.7947752683942938
1470000000               -0.40572105390309243     0.8317695074127566
1500000000               -0.33204450081025016     0.8624675776069378
1530000000               -0.25606368914038136     0.8866525321122503
1560000000               -0.1783532873420052      0.9041569456265123
1590000000               -0.09949950212893946     0.9148640195658507
1620000000               -0.020095623003737018    0.9187082982206608
1650000000               0.059262466241269074     0.915675993194803
1680000000               0.1379807747338729       0.905804916527965
1710000000               0.21547165640197896      0.8891840259241843
1740000000               0.291158193802675        0.8659525883152158
1770000000               0.3644784811816033       0.8362989707597953
1800000000               0.43488977554563474      0.8004590705038525
1830000000               0.5018724864451762       0.7587143982395903
1860000000               0.5649339759727641       0.7113898310871989
1890000000               0.6236121421738414       0.6588510541960393
1920000000               0.6774787616428317       0.6015017113742887
1950000000               0.7261425681396414       0.5397802875256912
1980000000               0.7692520467726756       0.47415674689587706
2010000000               0.806497925183383        0.4051289527408275
2040000000               0.837615345318909        0.33321889557662643
2070000000               0.8623857021367858       0.2589687575056885
2100000000               0.880638137362216        0.1829368420091957
2130000000               0.8922506793337668       0.10569339845885868
2.16E9                   0.8971510221314077       0.02781637163294727
2.19E9                   0.895316939785451        -0.05011289350824573
2.22E9                   0.8867763337511794       -0.12751396080284635
2.25E9                   0.8716069144340196       -0.2038115955242854
2.28E9                   0.849935519882153        -0.27844001021572984
2.31E9                   0.8219370772336845       -0.3508470339910634
2.34E9                   0.7878332146982875       -0.4204981764012571
2.37E9                   0.7478905339793365       -0.4868805577255206
2.4E9                    0.7024185546111937       -0.549506678854627
2.43E9                   0.6517673432076987       -0.6079180044386819
2.46E9                   0.5963248414119212       -0.6616883337336678
2.49E9                   0.5365139073013057       -0.7104269328787014
2.52E9                   0.47278908753606663      -0.7537814000858325
2.55E9                   0.40563314213281143      -0.7914402332590924
2.58E9                   0.3355533535399891       -0.8231350687638574
2.61E9                   0.2630776624360229       -0.8486425670124235
2.64E9                   0.18875068077291088      -0.8677859353643829
2.67E9                   0.11312962705662866      -0.8804360986357609
2.7E9                    0.03678021061682415      -0.8865125383834619
2.73E9                   -0.03972752996300777     -0.88598381502341
2.76E9                   -0.115823435185969       -0.8788677657958388
2.79E9                   -0.19094146834878353     -0.8652313542264312
2.82E9                   -0.26452396220372426     -0.8451901455082593
2.85E9                   -0.3360258223037505      -0.8189073950133644
2.88E9                   -0.4049186381120013      -0.7865927533979598
2.91E9                   -0.47069465911108604     -0.7485006031840405
2.94E9                   -0.5328706001342303      -0.7049280471937495
2.97E9                   -0.5909912465329196      -0.656212570496181
3.0E9                    -0.6446328330303956      -0.6027293978297572
3.03E9                   -0.693406172256062       -0.5448885689532683
3.06E9                   -0.7369595105761273      -0.48313175535234987
3.09E9                   -0.7749810902802263      -0.417928843429279
3.12E9                   -0.8072013992448167      -0.34977431084214144
3.15E9                   -0.8333950913020797      -0.27918342443970784
3.18E9                   -0.8533825630519793      -0.20668828985037002
3.21E9                   -0.8670311756734406      -0.13283378390516853
3.24E9                   -0.8742561131396672      -0.058173402276155584
3.27E9                   -0.8750208713697725      0.0167349450775692
3.3E9                    -0.8693373757588541      0.09133315715433415
3.33E9                   -0.8572657277362348      0.1650671507452569
3.36E9                   -0.8389135839999607      0.23739102193028658
3.39E9                   -0.8144351750255127      0.3077711278872935
3.42E9                   -0.7840299724747168      0.37569005723964255
3.45E9                   -0.7479410177437837      0.440650458986838
3.48E9                   -0.7064529267465015      0.5021787005709636
3.51E9                   -0.6598895884805368      0.5598283278109483
3.54E9                   -0.6086115771617753      0.6131833012286676
3.57E9                   -0.5530133001558897      0.6618609849840268
3.6E9                    -0.4935199053741355      0.7055148674959599
3.63E9                   -0.4305839740746489      0.7438369945195085
3.66E9                   -0.3646820258682759      0.7765600986313788
3.69E9                   -0.29631086417541797     0.8034594113294621
3.72E9                   -0.22598379102754207     0.8243541467903759
3.75E9                   -0.15422672070767637     0.8391086489161886
3.78E9                   -0.08157422188340516     0.8476331959280412
3.81E9                   -0.008565518115123894    0.8498844591821945
3.84E9                   0.06425952351504005      0.8458656153085139
3.87E9                   0.13636438585039645      0.8356261131305953
3.9E9                    0.2072198478020429       0.81926109922249
3.93E9                   0.2763078537937926       0.7969105084750708
3.96E9                   0.34312527776070906      0.7687578287258031
3.99E9                   0.4071875538758402       0.7350285513036185
4.02E9                   0.46803214728129333      0.6959883222439398
4.05E9                   0.525221840321131        0.6519408115579336
4.08E9                   0.578347812059835        0.6032253202184436
4.11E9                   0.6270324918115087       0.5502141459953261
4.14E9                   0.6709321700918154       0.4933097300395048
4.17E9                   0.7097393527515664       0.43294160611168153
4.2E9                    0.7431848456228703       0.36956317426302765
4.23E9                   0.7710395579819711       0.3036483209899067
4.26E9                   0.7931160140973884       0.2356879084879597
4.29E9                   0.8092695633010397       0.16618615697610106
4.32E9                   0.8193992809057957       0.09565694538448274
4.35E9                   0.8234485548445847       0.02462005620405395
4.38E9                   0.8214053552901277       -0.046402608919504464
4.41E9                   0.8133021869890001       -0.11689081737335333
4.44E9                   0.7992157256167197       -0.18632977227144096
4.47E9                   0.7792661408499821       -0.25421383274195253
4.5E9                    0.7536161100997681       -0.320050163156007
4.53E9                   0.7224695283720725       -0.3833622860934691
4.56E9                   0.6860699217609675       -0.443693513565853
4.59E9                   0.6446985745846711       -0.5006102309546426
4.62E9                   0.5986723829598184       -0.5537050085895443
4.65E9                   0.5483414504143796       -0.6025995169688536
4.68E9                   0.4940864438844189       -0.6469472232185751
4.71E9                   0.43631573047920347      -0.6864358487503617
4.74E9                   0.3754623175463719       -0.7207895701456286
4.77E9                   0.31198061920754355      -0.7497709483604862
4.8E9                    0.2463430737865327       -0.7731825732300114
4.83E9                   0.17903663642926126      -0.7908684127323231
4.86E9                   0.11055917181926933      -0.8027148579482959
4.89E9                   0.041415772271509256     -0.8086514562966944
4.92E9                   -0.027884972788573315    -0.8086513271481023
4.95E9                   -0.0968347289993675      -0.8027312557466397
4.98E9                   -0.16492916315738848     -0.7909514635834278
5.01E9                   -0.23167165482587093     -0.7734150558974721
5.04E9                   -0.2965769448429401      -0.7502671497335097
5.07E9                   -0.35917469223333054     -0.7216936889130676
5.1E9                    -0.41901291158927684     -0.6879199551681956
5.13E9                   -0.47566126405191017     -0.6492087875823979
5.16E9                   -0.5287141763310607      -0.6058585252993065
5.19E9                   -0.5777937643885004      -0.5582006907897613
5.22E9                   -0.6225525404277991      -0.5065974330515934
5.25E9                   -0.6626758844261187      -0.45143875124907346
5.28E9                   -0.6978842632627398      -0.3931395202925938
5.31E9                   -0.7279351822403113      -0.3321363403555222
5.34E9                   -0.7526248549235718      -0.26888423323315735
5.37E9                   -0.7717895783720577      -0.2038532098525693
5.4E9                    -0.7853068024664349      -0.13752473518579653
5.43E9                   -0.7930958844977578      -0.07038811841767349
5.46E9                   -0.7951185231488763      -0.00293685786877571
5.49E9                   -0.7913788695119308      0.06433502918050393
5.52E9                   -0.7819233163380241      0.1309366614859757
5.55E9                   -0.7668399701872002      0.19638390425274457
5.58E9                   -0.74625781432482        0.2602029064707651
5.61E9                   -0.7203455730049639      0.3219335387862087
5.64E9                   -0.6893102900222418      0.38113270745467287
5.67E9                   -0.6533956358103054      0.4373775224469804
5.7E9                    -0.6128799579617393      0.4902682998074747
5.73E9                   -0.5680740900494111      0.5394313796518514
5.76E9                   -0.5193189339214185      0.5845217413442862
5.79E9                   -0.46698283184035144     0.6252253970193546
5.82E9                   -0.4114587475936672      0.6612615444230177
5.85E9                   -0.35316127938439        0.6923844613378697
5.88E9                   -0.2925235304439728      0.7183851272094816
5.91E9                   -0.2299938652998499      0.7390925618703512
5.94E9                   -0.16603257933101842     0.7543748759061938
5.97E9                   -0.10110850799779332     0.764140030604593
6.0E9                    -0.035695600052000745    0.7683363076998571
