% Model:              three_layers reality at 0.1mm.mph
% Version:            COMSOL 5.6.0.280
% Date:               Mar 3 2022, 09:45
% Table:              表格 1 - 全局计算 1
% freq (Hz)              real(emw.S11) (1)        imag(emw.S11) (1)
300000000                0.5984090513727219       -0.7371400338182802
330000000                0.5316076386194603       -0.7858053003442749
360000000                0.46096957479571793      -0.828508715828162
390000000                0.38701521508729597      -0.8649422376825666
420000000                0.31028604515523334      -0.8948466600970987
450000000                0.23134879964731958      -0.9180088745772754
480000000                0.15078823309218592      -0.9342654254255841
510000000                0.06920207461905435      -0.9435040312997715
540000000                -0.012803464003014754    -0.9456644898258411
570000000                -0.09461845348235194     -0.9407392835290752
600000000                -0.17563400268094043     -0.9287737556719909
630000000                -0.25524697680324604     -0.9098658614718883
660000000                -0.33286465747770394     -0.8841655005345331
690000000                -0.40790930886549276     -0.851873438557791
720000000                -0.4798226224638031      -0.8132398276725618
750000000                -0.5480700063203238      -0.7685623383147496
780000000                -0.6121446885185247      -0.7181839171671041
810000000                -0.6715716034517749      -0.6624901887991177
840000000                -0.725911029759988       -0.6019065224995468
870000000                -0.7747619534573881      -0.5368947860881732
900000000                -0.8177651284164287      -0.4679498132809853
930000000                -0.8546058099956693      -0.39559561284377276
960000000                -0.8850161404849705      -0.32038134944184116
990000000                -0.908777167105122       -0.2428771284608216
1020000000               -0.9257204762863083      -0.1636696193691475
1050000000               -0.9357294316438426      -0.08335755249409729
1080000000               -0.9387400060284943      -0.0025471254806214076
1110000000               -0.9347412013297686      0.07815264266185767
1140000000               -0.9237750535572806      0.15813457306703144
1170000000               -0.9059362239380969      0.23679796602800815
1200000000               -0.8813711804578095      0.313553180320646
1230000000               -0.8502769776042991      0.3878261161263182
1260000000               -0.8128996454558974      0.4590625660637009
1290000000               -0.7695322026899617      0.5267323993733485
1320000000               -0.7205123107740676      0.590333547221753
1350000000               -0.6662195898156063      0.6493957577940981
1380000000               -0.6070726191669019      0.7034840925096217
1410000000               -0.5435256480507443      0.752202137237739
1440000000               -0.47606504411788086     0.7951949044933735
1470000000               -0.40520550912800346     0.8321514059556508
1500000000               -0.3314860930511772      0.8628068770211933
1530000000               -0.25546603898607956     0.886944638411952
1560000000               -0.17772049198221557     0.9043975829311082
1590000000               -0.09883610642052752     0.9150492783068181
1620000000               -0.01940658562641744     0.9188346806394642
1650000000               0.059971811137093135     0.915740455591036
1680000000               0.13870475974968421      0.9058049078657426
1710000000               0.21620432748479282      0.8891175223820627
1740000000               0.29189335982482484      0.8658181234190725
1770000000               0.3652097666418964       0.8360956608018797
1800000000               0.4356106759670262       0.800186634870689
1830000000               0.5025764256494698       0.7583731745461014
1860000000               0.5656143650334453       0.7109807848056944
1890000000               0.624262439410628        0.6583757826763339
1920000000               0.6780925331132462       0.6009624421786205
1950000000               0.7267135481405259       0.5391798709763901
1980000000               0.7697741978026489       0.47349864283615556
2010000000               0.8069654967555189       0.4044172116483513
2040000000               0.8380229311803945       0.3324581340131323
2070000000               0.8627282953562123       0.2581641280184612
2100000000               0.8809111826783742       0.18209399786923344
2130000000               0.892450122369337        0.10481845328490158
2.16E9                   0.8972733549564418       0.026915854189642097
2.19E9                   0.8953592423476167       -0.05103208885431576
2.22E9                   0.8867363107750293       -0.12844462778360535
2.25E9                   0.8714829273599798       -0.2047462733564235
2.28E9                   0.8497266134923557       -0.2793710441194696
2.31E9                   0.8216430006100996       -0.3517666385342598
2.34E9                   0.7874544361992986       -0.4213985010387841
2.37E9                   0.7474282499439142       -0.48775375403097637
2.4E9                    0.7018746916342729       -0.5503449686462906
2.43E9                   0.651144553637058        -0.6087137483967263
2.46E9                   0.5956264920044492       -0.6624340995137699
2.49E9                   0.5357440610849002       -0.7111155617481392
2.52E9                   0.47195247895654796      -0.7544060711616076
2.55E9                   0.4047351465755359       -0.7919945239392605
2.58E9                   0.33459995216555855      -0.823613010949348
2.61E9                   0.2620754046148882       -0.8490386990023723
2.64E9                   0.18770664506869697      -0.8680953512717698
2.67E9                   0.11205138079555539      -0.8806544976237085
2.7E9                    0.035675765099068536     -0.8866362755282595
2.73E9                   -0.04084977198527611     -0.8860099528744425
2.76E9                   -0.11695474213157625     -0.878794123196591
2.79E9                   -0.19207285213484226     -0.8650565480905826
2.82E9                   -0.26564625768567646     -0.8449136224406164
2.85E9                   -0.33712977028053875     -0.8185294517765929
2.88E9                   -0.40599496913161226     -0.7861145468685233
2.91E9                   -0.4717341764654872      -0.7479241510699816
2.94E9                   -0.5338642612675799      -0.7042562207087301
2.97E9                   -0.5919302426062689      -0.6554490797828585
3.0E9                    -0.645508666421849       -0.6018787706126586
3.03E9                   -0.694210731847766       -0.5439561225717374
3.06E9                   -0.7376851444496553      -0.48212356229581954
3.09E9                   -0.7756206753303169      -0.41685169052794535
3.12E9                   -0.8077484072475614      -0.34863565221924847
3.15E9                   -0.8338436508803672      -0.2779913283987904
3.18E9                   -0.8537275168819325      -0.20545138020259493
3.21E9                   -0.8672681325058376      -0.13156117586681146
3.24E9                   -0.8743814940305956      -0.056874633554868874
3.27E9                   -0.8750319496680826      0.018049987551698732
3.3E9                    -0.8692323104206375      0.09265431423398168
3.33E9                   -0.8570435895963961      0.16638407128861155
3.36E9                   -0.8385743746898161      0.23869324544684636
3.39E9                   -0.8139798383146998      0.30904816897126575
3.42E9                   -0.7834603978231263      0.3769314911963971
3.45E9                   -0.7472600360230549      0.4418460076936419
3.48E9                   -0.7056642980994785      0.5033183179566754
3.51E9                   -0.6589979823339265      0.5609022842671773
3.54E9                   -0.6076225445640303      0.6141822661389219
3.57E9                   -0.5519332385799095      0.6627761067344473
3.6E9                    -0.4923560163183514      0.706337850209542
3.63E9                   -0.42934421365330944     0.7445601709760217
3.66E9                   -0.36337504887613337     0.777176498645276
3.69E9                   -0.2949459619225303      0.803962825086132
3.72E9                   -0.22457082355759256     0.8247391824993333
3.75E9                   -0.15277604369963296     0.8393707843705756
3.78E9                   -0.08009660895892844     0.8477688233969487
3.81E9                   -0.007072079088915118    0.8498909232328788
3.84E9                   0.06575742777676474      0.8457412431563709
3.87E9                   0.13785523123442633      0.8353702371790498
3.9E9                    0.20869203667401984      0.8188740715292149
3.93E9                   0.27774980577042213      0.7963937069778518
3.96E9                   0.3445255206894306       0.7681136551888764
3.99E9                   0.408534814155864        0.7342604210801745
4.02E9                   0.4693154387566839       0.6951006460711828
4.05E9                   0.5264305509268166       0.6509389697990763
4.08E9                   0.5794717877605846       0.6021156299362004
4.11E9                   0.6280621173180088       0.5490038213608035
4.14E9                   0.6718584461097422       0.4920068364320752
4.17E9                   0.710553969493537        0.4315550082207933
4.2E9                    0.7438802523543793       0.36810247833832954
4.23E9                   0.7716090282300986       0.3021238114193858
4.26E9                   0.7935537061653314       0.23411047873255134
4.29E9                   0.8095705755327196       0.16456723514409674
4.32E9                   0.8195597012310355       0.09400841461127475
4.35E9                   0.8234655040446534       0.022954170236556083
4.38E9                   0.8212770234655782       -0.048073314750944306
4.41E9                   0.8130278625933614       -0.11855361921498352
4.44E9                   0.7987958164390744       -0.18797185436954375
4.47E9                   0.7787021863004089       -0.255822386957114
4.5E9                    0.7529107842316152       -0.32161249041474704
4.53E9                   0.7216266332345264       -0.38486589874552934
4.56E9                   0.6850943708872187       -0.44512623748307834
4.59E9                   0.6435963666774559       -0.501960306177883
4.62E9                   0.597450566045372        -0.5549611874168917
4.65E9                   0.54700807691351         -0.603751158492599
4.68E9                   0.49265051712341795      -0.6479843835021013
4.71E9                   0.43478714327558454      -0.687349365900942
4.74E9                   0.37385178335205665      -0.7215711437982182
4.77E9                   0.31029959644254657      -0.7504132129827731
4.8E9                    0.24460368375676345      -0.7736791648482453
4.83E9                   0.17725157538914457      -0.7912140285379909
4.86E9                   0.10874161766166122      -0.8029053082957971
4.89E9                   0.03957928643492377      -0.8086837085616415
4.92E9                   -0.029726547496729518    -0.8085235409381764
4.95E9                   -0.09866737392454948     -0.8024428090228535
4.98E9                   -0.16673879185368304     -0.7905029693185381
5.01E9                   -0.23344422265743978     -0.772808369001446
5.04E9                   -0.2982985592841838      -0.7495053640960241
5.07E9                   -0.3608317228769961      -0.7207811245167011
5.1E9                    -0.42059209898723693     -0.6868621353235241
5.13E9                   -0.4771498263708869      -0.648012406488562
5.16E9                   -0.5300999131369059      -0.60453140612067
5.19E9                   -0.5790651566187144      -0.5567517346146833
5.22E9                   -0.6236988458856463      -0.5050365590595434
5.25E9                   -0.6636872280572761      -0.4497768284772812
5.28E9                   -0.6987517215504552      -0.3913882913671205
5.31E9                   -0.7286508610077915      -0.33030833755718636
5.34E9                   -0.7531819597272609      -0.2669926874823301
5.37E9                   -0.7721824767865004      -0.20191195311064614
5.4E9                    -0.7855310774803357      -0.13554809707366233
5.43E9                   -0.7931483783737322      -0.0683908179241832
5.46E9                   -0.794997371224567       -9.338911320900347E-4
5.49E9                   -0.7910835235643328      0.06632850381574099
5.52E9                   -0.7814545573675742      0.1329054401648566
5.55E9                   -0.7661999106169554      0.19831285482280928
5.58E9                   -0.7454498898048779      0.26207708524885653
5.61E9                   -0.7193745241215063      0.3237383059843671
5.64E9                   -0.688182134289129       0.3828538404495981
5.67E9                   -0.6521176302385204      0.4390013263923189
5.7E9                    -0.6114605524302962      0.4917817149962212
5.73E9                   -0.5665228716027185      0.5408220850055476
5.76E9                   -0.517646562012207       0.5857782533559981
5.79E9                   -0.46520096469629935     0.6263371631624746
5.82E9                   -0.40957996013450393     0.6622190299480754
5.85E9                   -0.35119897335275163     0.6931792284861764
5.88E9                   -0.2904918377874878      0.7190099059687121
5.91E9                   -0.22790754585735984     0.7395413117981553
5.94E9                   -0.16390691390584317     0.7546428387880175
5.97E9                   -0.09895918763191425     0.7642237739497287
6.0E9                    -0.03353861220619941     0.7682337590896812
