% Model:              three_layers reality at 0.1mm.mph
% Version:            COMSOL 5.6.0.280
% Date:               Feb 23 2022, 10:12
% Table:              表格 1 - 全局计算 1
% freq (Hz)              real(emw.S11) (1)        imag(emw.S11) (1)
300000000                0.4480344296944225       -0.727081963638891
330000000                0.37438049751834923      -0.7644236690976083
360000000                0.2978379454253311       -0.7945419891721485
390000000                0.21908072721323502      -0.8172059830452412
420000000                0.1388078560422011       -0.8322508713433768
450000000                0.057734903206002566     -0.8395799093006122
480000000                -0.02341398996720301     -0.8391654829061503
510000000                -0.10391374878642097     -0.831049454968127
540000000                -0.18304572082393236     -0.8153427857014786
570000000                -0.26010476760147405     -0.792224451732967
600000000                -0.33440608026454677     -0.7619396894542829
630000000                -0.4052916911339245      -0.7247975917078228
660000000                -0.4721366439909318      -0.6811680906009068
690000000                -0.5343547820868249      -0.6314783633018002
720000000                -0.5914041111808029      -0.5762087022561212
750000000                -0.6427916969608077      -0.5158878949891893
780000000                -0.6880780577515317      -0.45108816312836525
810000000                -0.7268810179249874      -0.3824197133517189
840000000                -0.7588789912463296      -0.310524956505432
870000000                -0.7838136688733529      -0.2360724534662075
900000000                -0.8014920919277433      -0.1597506487326259
930000000                -0.8117880947317468      -0.08226145368250072
960000000                -0.8146431104909532      -0.004313742901219472
990000000                -0.8100663376616177      0.07338317344705893
1020000000               -0.7981342711762214      0.1501260380175744
1050000000               -0.7789896089613466      0.22522403405360578
1080000000               -0.7528395500216702      0.2980050121455311
1110000000               -0.7199535061218201      0.36782149838030037
1140000000               -0.6806602545497337      0.43405642877962053
1170000000               -0.6353445644854507      0.49612855858767607
1200000000               -0.584443334214383       0.5534974985423345
1230000000               -0.5284412806477499      0.6056683346950206
1260000000               -0.46786622632722125     0.6521957929142818
1290000000               -0.4032840323916023      0.6926879140999029
1320000000               -0.3352932285049769      0.7268092114715776
1350000000               -0.2645193931303151      0.7542832864058829
1380000000               -0.19160933876366448     0.774894885104489
1410000000               -0.11722515800415821     0.7884913836777883
1440000000               -0.0420381865849393      0.7949836949344192
1470000000               0.03327706054943569      0.7943465956440068
1500000000               0.10804892475614364      0.7866184784396176
1530000000               0.18161455662100306      0.7719005377983474
1560000000               0.25332573367497224      0.7503554045857792
1590000000               0.32255449264789515      0.7222052484587727
1620000000               0.38869852825515605      0.687729371972519
1650000000               0.45118631374599794      0.6472613244598301
1680000000               0.5094819015390034       0.6011855676722848
1710000000               0.5630893661702857       0.5499337286447664
1740000000               0.611556855471735        0.4939804785397963
1770000000               0.6544802204678991       0.4338390788396014
1800000000               0.6915061988553703       0.3700566387393003
1830000000               0.7223351319642313       0.3032091293323861
1860000000               0.7467232002375653       0.2338962016724782
1890000000               0.7644841679720721       0.16273585633765303
1920000000               0.7754906340767097       0.09035901206006575
1950000000               0.7796747921179972       0.017404019743735896
1980000000               0.7770287099639455       -0.0554888350791281
2010000000               0.7676041463625709       -0.12768280346614896
2040000000               0.7515119283703104       -0.1985500898253521
2070000000               0.7289209175339437       -0.26747720037776945
2100000000               0.7000565904382903       -0.33387023118579084
2130000000               0.6651992436508589       -0.397160131827392
2.16E9                   0.6246817928799804       -0.4568080112195498
2.19E9                   0.5788870575732631       -0.5123105682062123
2.22E9                   0.5282442976659569       -0.563205694595374
2.25E9                   0.47322462212478666      -0.6090781504596672
2.28E9                   0.4143348162438855       -0.6495648863825974
2.31E9                   0.35210933534666344      -0.6843591056967531
2.34E9                   0.2871009066317898       -0.7132117763023142
2.37E9                   0.21987130908963978      -0.7359295584611765
2.4E9                    0.15098475646326825      -0.7523694686380653
2.43E9                   0.0810057562354821       -0.7624326044645042
2.46E9                   0.010501035560888106     -0.7660603044542286
2.49E9                   -0.0599573739273021      -0.7632348544540619
2.52E9                   -0.12979134979981896     -0.7539840367378966
2.55E9                   -0.1984198767717702      -0.7383867785341912
2.58E9                   -0.2652655742051822      -0.7165772368936683
2.61E9                   -0.32976271747129693     -0.6887461205217151
2.64E9                   -0.39136510721749274     -0.655139447113049
2.67E9                   -0.44955292050407486     -0.6160555579549172
2.7E9                    -0.5038383509506785      -0.5718411919596325
2.73E9                   -0.5537701880013928      -0.5228871478407291
2.76E9                   -0.5989375704890045      -0.46962379887910316
2.79E9                   -0.6389731120740039      -0.41251655596868386
2.82E9                   -0.6735555273369438      -0.352061293465606
2.85E9                   -0.702411827798226       -0.2887797255230722
2.88E9                   -0.7253191169832918      -0.22321472040340584
2.91E9                   -0.7421059906913833      -0.15592554969386077
2.94E9                   -0.7526535374266429      -0.08748308090723875
2.97E9                   -0.7568959302682328      -0.018464931863348574
3.0E9                    -0.7548206020075501      0.050549386966449034
3.03E9                   -0.7464679983819409      0.11898331042603737
3.06E9                   -0.7319309085338738      0.18626800179167435
3.09E9                   -0.7113533767747093      0.251847044047013
3.12E9                   -0.6849292048598729      0.31518100228778945
3.15E9                   -0.6529000587558006      0.3757518216333987
3.18E9                   -0.6155531979433853      0.4330670276575189
3.21E9                   -0.5732188479741523      0.48666370007417825
3.24E9                   -0.5262672380272195      0.5361121942696453
3.27E9                   -0.4751053244442591      0.5810195885586961
3.3E9                    -0.4201732190879375      0.6210328367090874
3.33E9                   -0.36194033861114144     0.6558416046447533
3.36E9                   -0.3009012888211503      0.6851807667216836
3.39E9                   -0.2375714986858488      0.7088325309830391
3.42E9                   -0.17248262264071743     0.7266281552626332
3.45E9                   -0.10617773900552728     0.7384492085926343
3.48E9                   -0.0392063869057985      0.7442283276772482
3.51E9                   0.0278804968219184       0.743949419150157
3.54E9                   0.09453565775269031      0.7376472677991499
3.57E9                   0.1602205188235235       0.7254065305465393
3.6E9                    0.2244099759037848       0.7073601248872299
3.63E9                   0.28659687981529774      0.6836870546191888
3.66E9                   0.3462961041650349       0.654609748705247
3.69E9                   0.40304812310429877      0.6203910146616247
3.72E9                   0.45642205318799633      0.581330723038044
3.75E9                   0.5060181441654505       0.5377623459055012
3.78E9                   0.5514697337914722       0.4900494736423971
3.81E9                   0.5924447154503476       0.4385824317265078
3.84E9                   0.6286466082025645       0.3837751070484028
3.87E9                   0.659815363241118        0.32606206094945966
3.9E9                    0.6857280743140024       0.26589594658357996
3.93E9                   0.7061997622001901       0.20374516668209275
3.96E9                   0.7210843600369607       0.14009162558250987
3.99E9                   0.7302759398929943       0.07542837589551821
4.02E9                   0.7337101137722133       0.010256958728029562
4.05E9                   0.731365447774758        -0.05491570838735102
4.08E9                   0.7232646757891893       -0.11958094675442879
4.11E9                   0.7094755019058511       -0.1832323813090059
4.14E9                   0.6901108321110041       -0.245370316919546
4.17E9                   0.665328355437655        -0.3055062434620105
4.2E9                    0.6353294777302211       -0.3631672862482306
4.23E9                   0.6003576766606497       -0.4179004534101489
4.26E9                   0.5606963822021414       -0.4692765867958917
4.29E9                   0.5166664901766337       -0.5168939794638562
4.32E9                   0.46862359451392455      -0.5603816656610366
4.35E9                   0.41695498922751695      -0.5994024096279459
4.38E9                   0.36207645793346277      -0.6336554172850841
4.41E9                   0.30442884774946255      -0.662878776731291
4.44E9                   0.2444744198229236       -0.686851609931238
4.47E9                   0.18269297876438664      -0.7053958982987855
4.5E9                    0.11957780205253972      -0.7183779348995865
4.53E9                   0.05563141172709614      -0.7257093571843071
4.56E9                   -0.008638750607529212    -0.7273477252903717
4.59E9                   -0.07272467189200445     -0.7232966297043961
4.62E9                   -0.13612206144549469     -0.7136053355230452
4.65E9                   -0.19833452000413382     -0.6983679948129734
4.68E9                   -0.25887753183144113     -0.6777224781198363
4.71E9                   -0.31728225454638137     -0.6518488845243948
4.74E9                   -0.37309910954544795     -0.6209677819546083
4.77E9                   -0.42590119495037276     -0.5853382062394296
4.8E9                    -0.47528754405872004     -0.545255416352009
4.83E9                   -0.5208862327970206      -0.5010483772295354
4.86E9                   -0.5623573063149678      -0.45307693261425896
4.89E9                   -0.5993954604754238      -0.4017286438561156
4.92E9                   -0.6317323917573842      -0.3474153031327814
4.95E9                   -0.6591387270919805      -0.29056917100605023
4.98E9                   -0.6814254646344798      -0.23163902709062417
5.01E9                   -0.6984448932860197      -0.1710861489503988
5.04E9                   -0.710091005547933       -0.10938034190270203
5.07E9                   -0.716299466082702       -0.046996126994041945
5.1E9                    -0.7170472357553788      0.015590843269145997
5.13E9                   -0.7123519660251421      0.07790712697082122
5.16E9                   -0.7022712615561394      0.1394846362685923
5.19E9                   -0.6869018595471278      0.19986366724897647
5.22E9                   -0.6663787068224207      0.2585959051871224
5.25E9                   -0.6408738578471426      0.3152474540966166
5.28E9                   -0.6105950975135737      0.3694018690403866
5.31E9                   -0.575784224731834       0.4206631019591268
5.34E9                   -0.5367150028349579      0.46865824121985034
5.37E9                   -0.4936908561622326      0.5130399476821196
5.4E9                    -0.44704243354242656     0.5534885538359722
5.43E9                   -0.39712515174634505     0.5897138662897187
5.46E9                   -0.3443167831090536      0.6214567635357612
5.49E9                   -0.289015084876101       0.6484906935125727
5.52E9                   -0.23163540908382194     0.6706231498943825
5.55E9                   -0.17260819728500254     0.6876971559137917
5.58E9                   -0.11237625968791126     0.6995927262040671
5.61E9                   -0.051391761124491356    0.7062282242581062
5.64E9                   0.009887118896017101     0.7075614954807934
5.67E9                   0.07099982470486114      0.7035906414788389
5.7E9                    0.13148726940789005      0.6943543177646032
5.73E9                   0.19089574143809004      0.6799314879176259
5.76E9                   0.2487807089634714       0.6604406443296449
5.79E9                   0.30471038797334415      0.636038584326999
5.82E9                   0.3582690122991128       0.6069188771140545
5.85E9                   0.4090598284769982       0.5733101486889337
5.88E9                   0.4567078954099252       0.535474254399759
5.91E9                   0.5008627746368426       0.4937043340279381
5.94E9                   0.5412011573088853       0.4483226892023786
5.97E9                   0.5774294154796827       0.3996784071528907
6.0E9                    0.6092860156339879       0.3481446745489225
