% Model:              three_layers reality at 0.1mm.mph
% Version:            COMSOL 5.6.0.280
% Date:               Mar 10 2022, 14:38
% Table:              表格 1 - 全局计算 1
% freq (Hz)              real(emw.S11) (1)        imag(emw.S11) (1)
300000000                0.5439478649690973       -0.7377510894524115
330000000                0.4741946881690927       -0.7826045655517397
360000000                0.4008996243232959       -0.821028819575418
390000000                0.32462530003097856      -0.8527346878586501
420000000                0.2459645466235859       -0.8774830276732933
450000000                0.1655342745548774       -0.8950878487288286
480000000                0.08396955560343695      -0.905418709206235
510000000                0.0019178042662307605    -0.9084024716819444
540000000                -0.07996699290922892     -0.9040244680155158
570000000                -0.16103001634429148     -0.8923290986212292
600000000                -0.24062131386851268     -0.8734198791905072
630000000                -0.31810144129461754     -0.847458942863275
660000000                -0.39284701156035606     -0.8146660046605252
690000000                -0.4642561146361251      -0.7753167962177646
720000000                -0.5317535653139032      -0.7297409821011893
750000000                -0.5947959342137222      -0.6783195727554713
780000000                -0.6528763157114968      -0.6214818540448113
810000000                -0.7055287868471827      -0.5597018582921128
840000000                -0.7523325124853696      -0.49349440703375314
870000000                -0.7929154542622019      -0.42341076078980794
900000000                -0.8269576438473201      -0.3500339164409962
930000000                -0.8541939854447973      -0.27397359690748113
960000000                -0.874416556754367       -0.19586098256864815
990000000                -0.8874763832705957      -0.11634323708905486
1020000000               -0.8932846666981217      -0.03607788309908276
1050000000               -0.8918134544519714      0.04427291437462564
1080000000               -0.8830957439930798      0.12404809803168591
1110000000               -0.8672250223685177      0.20259344255574308
1140000000               -0.8443542481600267      0.2792671944106858
1170000000               -0.8146942896831697      0.3534455696030159
1200000000               -0.7785118395809516      0.4245280545641255
1230000000               -0.7361268320691282      0.4919424578437457
1260000000               -0.6879093944427317      0.5551496644848118
1290000000               -0.6342763695121028      0.613648048980294
1320000000               -0.5756874497580802      0.666977507891254
1350000000               -0.5126409675460165      0.7147230783902595
1380000000               -0.4456693886309715      0.7565181145511773
1410000000               -0.37533455783444447     0.7920469992526908
1440000000               -0.3022227474254333      0.8210473750755307
1470000000               -0.22693955876400482     0.8433118836694748
1500000000               -0.1501047277477433      0.8586894085485135
1530000000               -0.0723468836176222      0.8670858217018239
1560000000               0.005701690918503566     0.8684642394865115
1590000000               0.08341025221625707      0.8628447979199674
1620000000               0.1601546974360101       0.8503039617151338
1650000000               0.23532253482255855      0.8309733851439095
1680000000               0.30831768498380685      0.8050383460669871
1710000000               0.3785650789381876       0.7727357771876866
1740000000               0.4455150219795696       0.7343519209018061
1770000000               0.5086472960778913       0.6902196358194372
1800000000               0.5674749766781976       0.6407153844697109
1830000000               0.6215479433397761       0.5862559326007
1860000000               0.6704560667736779       0.527294791085195
1890000000               0.7138320580049652       0.4643184318026591
1920000000               0.7513539685087047       0.3978423086825901
1950000000               0.7827473329037038       0.32840671504989416
1980000000               0.8077869487965714       0.25657250767164114
2010000000               0.82629829111069         0.18291672698230801
2040000000               0.8381585609311991       0.10802814159751542
2070000000               0.8432973714854637       0.03250274278684093
2100000000               0.8416970757934188       -0.04306078874992363
2130000000               0.833392741013963        -0.11806562666345839
2.16E9                   0.8184717718147543       -0.19192134245785916
2.19E9                   0.7970731765187079       -0.26404844499977254
2.22E9                   0.7693864522882962       -0.3338829145737545
2.25E9                   0.7356500390056269       -0.40088071872670455
2.28E9                   0.6961492648484328       -0.46452225858080287
2.31E9                   0.6512137077839775       -0.5243166192979329
2.34E9                   0.6012139689735577       -0.5798054100612489
2.37E9                   0.546558018708661        -0.6305659512535233
2.4E9                    0.48768746300603305      -0.6762136995429999
2.43E9                   0.4250741151044386       -0.7164040963019004
2.46E9                   0.35921701254334854      -0.7508342847800531
2.49E9                   0.29063962604059823      -0.7792451077741348
2.52E9                   0.21988678840574816      -0.8014234562635837
2.55E9                   0.14752100001172935      -0.8172046801126307
2.58E9                   0.07411808038011572      -0.8264746619634566
2.61E9                   2.623678557897691E-4     -0.829171287032732
2.64E9                   -0.07345828088957465     -0.8252852354523562
2.67E9                   -0.14645750697908574     -0.8148601474125997
2.7E9                    -0.21815538271699764     -0.7979922463051089
2.73E9                   -0.2879832211930169      -0.7748294904616717
2.76E9                   -0.35538824430763216     -0.7455702976000671
2.79E9                   -0.41983809443861486     -0.710461865978215
2.82E9                   -0.4808251701007857      -0.6697981058343996
2.85E9                   -0.5378707593934243      -0.6239171921446887
2.88E9                   -0.5905289406420432      -0.5731987514136686
2.91E9                   -0.6383902169954226      -0.5180606992712962
2.94E9                   -0.6810848511883735      -0.4589557505342211
2.97E9                   -0.7182858678767556      -0.3963676280557134
3.0E9                    -0.7497116929372553      -0.3308070015255809
3.03E9                   -0.7751284023623531      -0.2628071914013935
3.06E9                   -0.7943515572135761      -0.19291967674433277
3.09E9                   -0.8072476054450214      -0.12170944881810693
3.12E9                   -0.8137348363523863      -0.04975025437850184
3.15E9                   -0.8137838784797886      0.02238022566688479
3.18E9                   -0.8074177371847239      0.09410521615724972
3.21E9                   -0.7947113732382312      0.1648536600165842
3.24E9                   -0.7757908288427369      0.2340649578816958
3.27E9                   -0.7508319120136794      0.30119359133395984
3.3E9                    -0.7200584542985331      0.365713588068838
3.33E9                   -0.6837401603269326      0.4271227893452729
3.36E9                   -0.6421900708008339      0.484946882149647
3.39E9                   -0.595761663347375       0.5387431605177111
3.42E9                   -0.5448456186886357      0.5881039819788051
3.45E9                   -0.4898662827447366      0.6326598868797655
3.48E9                   -0.4312778592774981      0.6720823500227614
3.51E9                   -0.36956037222758253     0.7060861366353701
3.54E9                   -0.3052154420138578      0.7344312384844287
3.57E9                   -0.2387619251903911      0.7569243715616154
3.6E9                    -0.17073147096364744     0.773420024470791
3.63E9                   -0.10166405011115316     0.7838210560473948
3.66E9                   -0.03210351115921668     0.7880788507806379
3.69E9                   0.03740678487144322      0.786193050069584
3.72E9                   0.1063282056174204       0.7782108852329245
3.75E9                   0.17413092554120252      0.7642261442100825
3.78E9                   0.24029780988345167      0.7443778086560298
3.81E9                   0.30432808158569813      0.7188484018499626
3.84E9                   0.36574075886354707      0.6878620898681264
3.87E9                   0.4240778634768598       0.6516825767564027
3.9E9                    0.478907411737098        0.6106108269716687
3.93E9                   0.5298262082628231       0.5649826348339543
3.96E9                   0.5764624624005859       0.5151660439499092
3.99E9                   0.6184782377742053       0.4615586047752208
4.02E9                   0.655571728869035        0.40458445120116393
4.05E9                   0.687479340460358        0.34469118011048283
4.08E9                   0.7139775320887062       0.28234653026681883
4.11E9                   0.7348843847005782       0.21803487448274395
4.14E9                   0.750060850942111        0.1522535562880094
4.17E9                   0.7594116621535396       0.08550911466068481
4.2E9                    0.76288588004468         0.018313445687037026
4.23E9                   0.7604770953094733       -0.04882005197975306
4.26E9                   0.7522232859507917       -0.1153803082415049
4.29E9                   0.7382063531920278       -0.18086235934202857
4.32E9                   0.718551352648246        -0.24477105146654266
4.35E9                   0.6934254344679069       -0.3066246553909605
4.38E9                   0.6630365008667628       -0.3659583792794987
4.41E9                   0.6276315852206313       -0.42232776502948566
4.44E9                   0.5874949551844107       -0.47531194959727785
4.47E9                   0.5429459435983038       -0.5245167683622672
4.5E9                    0.49433651462733064      -0.5695776742856655
4.53E9                   0.4420485777478323       -0.6101624451464511
4.56E9                   0.3864910678231775       -0.6459736517770187
4.59E9                   0.3280968147947796       -0.6767508628797373
4.62E9                   0.26731923066905666      -0.7022725664497393
4.65E9                   0.20462884374054033      -0.7223577935602501
4.68E9                   0.14050970970437007      -0.7368674362249239
4.71E9                   0.07545572639873477      -0.7457052558150558
4.74E9                   0.009966874424877049     -0.7488185804047105
4.77E9                   -0.05545459810315734     -0.7461986877437518
4.8E9                    -0.12030802959604509     -0.7378808661109827
4.83E9                   -0.18409821742051094     -0.7239441404058862
4.86E9                   -0.24633928103323577     -0.7045106485564983
4.89E9                   -0.30655847896839045     -0.6797446557507252
4.92E9                   -0.3642999348170949      -0.6498512015910543
4.95E9                   -0.41912822319498555     -0.6150743866104844
4.98E9                   -0.47063176762024633     -0.5756953173006195
5.01E9                   -0.51842600825612        -0.5320297404565566
5.04E9                   -0.5621563078420377      -0.4844254059594076
5.07E9                   -0.6015005769087947      -0.4332592004485424
5.1E9                    -0.6361716121181475      -0.37893409160184055
5.13E9                   -0.6659191509478435      -0.3218759141832779
5.16E9                   -0.6905316486285015      -0.2625300170370953
5.19E9                   -0.7098377775759165      -0.2013577794310351
5.22E9                   -0.7237076373981512      -0.13883300108569546
5.25E9                   -0.7320536505381267      -0.07543817663760435
5.28E9                   -0.7348311124036555      -0.011660680825920278
5.31E9                   -0.7320383705887328      0.05201109112247724
5.34E9                   -0.7237166247359085      0.1150915715559334
5.37E9                   -0.7099493598842497      0.1771018008978008
5.4E9                    -0.6908614428313884      0.23757309688677558
5.43E9                   -0.6666179170335653      0.2960505870314678
5.46E9                   -0.6374225264291065      0.35209659496424833
5.49E9                   -0.6035159866292653      0.40529387989173965
5.52E9                   -0.5651740090533367      0.4552487278781702
5.55E9                   -0.522705074582969       0.5015938860718481
5.58E9                   -0.47644795048987254     0.5439913197672839
5.61E9                   -0.4267689480880445      0.5821347606613702
5.64E9                   -0.3740589282477836      0.6157520053990387
5.67E9                   -0.31873007633982814     0.6446069190193738
5.7E9                    -0.26121248537141695     0.6685011005570247
5.73E9                   -0.20195060217988134     0.6872751797354315
5.76E9                   -0.14139960066976887     0.7008097337769263
5.79E9                   -0.08002174325064147     0.7090258365687638
5.82E9                   -0.018282776269952807    0.7118852702572807
5.85E9                   0.04335161657509996      0.7093904343823128
5.88E9                   0.10441929704593492      0.7015839789175236
5.91E9                   0.16446509227146677      0.6885481714556673
5.94E9                   0.22304414742067513      0.6704039946760494
5.97E9                   0.2797251945410782       0.6473099644129808
6.0E9                    0.3340937091274679       0.6194606618819505
