% Model:              three_layers reality at 0.1mm.mph
% Version:            COMSOL 5.6.0.280
% Date:               Feb 23 2022, 16:40
% Table:              表格 1 - 全局计算 1
% freq (Hz)              real(emw.S11) (1)        imag(emw.S11) (1)
300000000                0.44810046701404205      -0.727159184411595
330000000                0.37444130874057646      -0.7645067949392019
360000000                0.29789270144578917      -0.7946308819680787
390000000                0.219128615104086        -0.8173003242935574
420000000                0.1388481053208162       -0.8323501876311717
450000000                0.05776680491812876      -0.8396835938475626
480000000                -0.023391068231890345    -0.8392728142841852
510000000                -0.10390035096703763     -0.8311596141409986
540000000                -0.1830422929832441      -0.8154548719652756
570000000                -0.26011165011334275     -0.7923374980008423
600000000                -0.3344235017589481      -0.7620526771668923
630000000                -0.40531976399341885     -0.7249094655163146
660000000                -0.47217536135602345     -0.6812777728698816
690000000                -0.5344040162299186      -0.6315847684904132
720000000                -0.5914636133959047      -0.5763107510873362
750000000                -0.642861098820961       -0.5159845283874198
780000000                -0.6881568738431019      -0.45117835578256105
810000000                -0.726968649901499       -0.3825024868645267
840000000                -0.7589747332909931      -0.31059939192642544
870000000                -0.7839167143908493      -0.23613770321654526
900000000                -0.8016015415326394      -0.1598059476068665
930000000                -0.8119029653156971      -0.08230612903539689
960000000                -0.8147623453775987      -0.004347223724446868
990000000                -0.8101888176707887      0.0733613485262266
1020000000               -0.7982588265203399      0.1501162140441954
1050000000               -0.7791150318096872      0.22522643432221623
1080000000               -0.7529646076081181      0.2980197341473458
1110000000               -0.7200769542418671      0.36784851119230033
1140000000               -0.6807808512907396      0.43409557193598913
1170000000               -0.6354610840329146      0.49617954240908946
1200000000               -0.584554580584196       0.5535599059511956
1230000000               -0.5285461011641431      0.6057416245069288
1260000000               -0.46796352472958413     0.6522793045388273
1290000000               -0.4033727813571325      0.692780873659995
1320000000               -0.3353724815406757      0.7269107391833138
1350000000               -0.26458829558077135     0.7543924052485508
1380000000               -0.19166713791387197     0.7750105305899452
1410000000               -0.11727121209297398     0.7886124146697998
1440000000               -0.04207197266634264     0.7951089053816821
1470000000               0.033255940005262906     0.7944747270941503
1500000000               0.10804073659020884      0.7867482332084785
1530000000               0.1816194330749241       0.7720305926506978
1560000000               0.25334366996301744      0.7504844247745752
1590000000               0.3225853459166967       0.7223319019883553
1620000000               0.38874201807068953      0.6878523439229092
1650000000               0.4512420239998223       0.6473793312383499
1680000000               0.5095492838453914       0.6012973710241283
1710000000               0.5631677446236758       0.5500381493286233
1740000000               0.6116454328108095       0.49407640948080656
1770000000               0.6545780855242118       0.43392549768477623
1800000000               0.6916123352545409       0.3701326196668416
1830000000               0.7224484279784147       0.30327385405331037
1860000000               0.7468424597378519       0.23394896949596922
1890000000               0.7646081223833261       0.16277609327106926
1920000000               0.7756179552711657       0.09038627888145774
1950000000               0.7798041062168668       0.01741801895592208
1980000000               0.7771586119946687       -0.05548825332934196
2010000000               0.7677332158242575       -0.1276956366902374
2040000000               0.751638745780208        -0.19857617966494287
2070000000               0.7290440821131743       -0.2675162304429503
2100000000               0.7001747391707838       -0.33392172653797325
2130000000               0.6653110719853029       -0.397223460610294
2.16E9                   0.6247860772607506       -0.45688238935314796
2.19E9                   0.5789826796957097       -0.5123950684957731
2.22E9                   0.5283302695164526       -0.5632992621929205
2.25E9                   0.47330010956521634      -0.6091796266278003
2.28E9                   0.41439915691063123      -0.649673041776847
2.31E9                   0.35216204485537017      -0.6844726817461528
2.34E9                   0.2871416672677249       -0.7133295287230558
2.37E9                   0.2198999391569986       -0.7360502921833967
2.4E9                    0.1510011666991595       -0.7524920522605326
2.43E9                   0.08100990787779914      -0.7625559583660468
2.46E9                   0.010492916342994364     -0.7661833683282518
2.49E9                   -0.05997774752327026     -0.7633565497788855
2.52E9                   -0.1298239080170882      -0.7541032404828113
2.55E9                   -0.19846446200234472     -0.7385023166835866
2.58E9                   -0.26532190887759466     -0.7166878968208771
2.61E9                   -0.32983038178607693     -0.6888506756525328
2.64E9                   -0.39144352860805676     -0.6552366865658326
2.67E9                   -0.449641373180857       -0.6161443158873986
2.7E9                    -0.503935962768948       -0.5719203738273544
2.73E9                   -0.5538759520279813      -0.5229557526403982
2.76E9                   -0.5990503593792275      -0.4696809374230581
2.79E9                   -0.6390916940413058      -0.4125614656536325
2.82E9                   -0.6736785830194357      -0.3520933500350402
2.85E9                   -0.7025379676198427      -0.2887984522932578
2.88E9                   -0.7254468988369436      -0.22321979521322768
2.91E9                   -0.7422339377989153      -0.1559168098519684
2.94E9                   -0.7527801563158585      -0.08746052621814546
2.97E9                   -0.7570197287769733      -0.01842872580237823
3.0E9                    -0.7549401072208748      0.05059891788386736
3.03E9                   -0.7465817743876516      0.11904567909128126
3.06E9                   -0.7320375738692432      0.186342564735125
3.09E9                   -0.7114516214227496      0.251933007443404
3.12E9                   -0.6850178066332406      0.3152774297257541
3.15E9                   -0.6529778989288819      0.3758576435725305
3.18E9                   -0.6156192759769795      0.4331810525497791
3.21E9                   -0.5732722951870683      0.486784627082768
3.24E9                   -0.5263073300765283      0.5362386275291844
3.27E9                   -0.47513149248092773     0.5811500529150979
3.3E9                    -0.42018505940008977     0.6211657949309045
3.33E9                   -0.36193762057433965     0.6559754760379798
3.36E9                   -0.30088396090701086     0.6853139471033965
3.39E9                   -0.23753969220996032     0.7089634139221892
3.42E9                   -0.1724366528886817      0.7267551544038482
3.45E9                   -0.1061181033597542      0.7385707807704126
3.48E9                   -0.039133759531743806    0.744342996372829
3.51E9                   0.02796527401682454      0.7440557976665972
3.54E9                   0.09463158810045194      0.7377440813550672
3.57E9                   0.16032646778498094      0.7254926363664578
3.6E9                    0.22452469154552832      0.7074345293004067
3.63E9                   0.28671901622630575      0.6837489262444988
3.66E9                   0.34642424690057877      0.6546584269561975
3.69E9                   0.40318081545166184      0.6204260130885237
3.72E9                   0.45655782194513184      0.5813517273625334
3.75E9                   0.5061555235399787       0.5377692070067721
3.78E9                   0.5516072861252431       0.49004219614391026
3.81E9                   0.5925810476349685       0.438561159269126
3.84E9                   0.6287803830156076       0.3837401056991104
3.87E9                   0.6599453053260306       0.3260137024819459
3.9E9                    0.6858529711957992       0.2658346934409769
3.93E9                   0.7063184614091654       0.20367156023468655
3.96E9                   0.7211957640177844       0.14000627876499364
3.99E9                   0.7303790006825509       0.07533197051558
4.02E9                   0.7338038293575342       0.010150246922270722
4.05E9                   0.7314488615855496       -0.05503189979556683
4.08E9                   0.7233368800986786       -0.11970571067781346
4.11E9                   0.7095356451317181       -0.183364725287277
4.14E9                   0.6901581293720401       -0.24550915991919844
4.17E9                   0.665362101310112        -0.30565041552760364
4.2E9                    0.635349060026621        -0.363315531382472
4.23E9                   0.6003625901822564       -0.4180514355914009
4.26E9                   0.5606862416623567       -0.46942889878080757
4.29E9                   0.5166410418370747       -0.5170461538313956
4.32E9                   0.46858272632503906      -0.5605321876535859
4.35E9                   0.4168987394076282       -0.5995497314628153
4.38E9                   0.3620050219739346       -0.6337979737435161
4.41E9                   0.3043425837407332       -0.6630150019538186
4.44E9                   0.24437385194123512      -0.6869799553330326
4.47E9                   0.18257879864343407      -0.7055148514797883
4.5E9                    0.11945086773905444      -0.7184860393080751
4.53E9                   0.05549274395966464      -0.7258052321535923
4.56E9                   -0.008787974969726876    -0.7274300859667377
4.59E9                   -0.07288312932008481     -0.723364306312244
4.62E9                   -0.13628829391930514     -0.7136572914142949
4.65E9                   -0.1985069496329059      -0.6984033428119836
4.68E9                   -0.25905447746988813     -0.6777404948291401
4.71E9                   -0.31746194996900157     -0.6518490224176291
4.74E9                   -0.3732797227640783      -0.6209496792642303
4.77E9                   -0.42608084842934346     -0.5853016947383988
4.8E9                    -0.4754643357177402      -0.5452005271230592
4.83E9                   -0.5210582578217994      -0.5009753444165588
4.86E9                   -0.5625226798333897      -0.4529861949378107
4.89E9                   -0.5995523410179674      -0.40162084354931454
4.92E9                   -0.6318790052270641      -0.3472912818331715
4.95E9                   -0.6592733907120206      -0.2904299621980636
4.98E9                   -0.681546610119524       -0.23148584482793907
5.01E9                   -0.6985510883118308      -0.17092037293901574
5.04E9                   -0.7101809726314882      -0.10920349926317406
5.07E9                   -0.7163720980969841      -0.046809871476015265
5.1E9                    -0.7171016076325606      0.015784753706304718
5.13E9                   -0.7123873425923382      0.07810685312981057
5.16E9                   -0.7022871018589143      0.13968828033390623
5.19E9                   -0.6868978182958747      0.20006929442972943
5.22E9                   -0.6663546336530045      0.25880156420135103
5.25E9                   -0.640829794905548       0.31545119661595833
5.28E9                   -0.6105312755322327      0.36960176837898445
5.31E9                   -0.5757010574478222      0.4208572711376512
5.34E9                   -0.5366130794774755      0.4688448502294292
5.37E9                   -0.49357093188576917     0.5132172394368876
5.4E9                    -0.4469054180225947      0.5536548581686866
5.43E9                   -0.3969720965702195      0.5898676114251489
5.46E9                   -0.34414886882826407     0.6215964848520694
5.49E9                   -0.2888336086791286      0.6486150398064758
5.52E9                   -0.23144177384061876     0.6707308878022158
5.55E9                   -0.17240390232738162     0.687787173420385
5.58E9                   -0.1121628932711861      0.6996640362221722
5.61E9                   -0.051170994044876045    0.7062799691337169
5.64E9                   0.010113539383038628     0.707592952940729
5.67E9                   0.07123008165727995      0.7036012320727233
5.7E9                    0.1317194845671976       0.6943436133698975
5.73E9                   0.1911279857781626       0.6798992204791761
5.76E9                   0.24901101547314808      0.6603867138533263
5.79E9                   0.30493676624883187      0.6359630653076138
5.82E9                   0.3584894642134371       0.6068220229707851
5.85E9                   0.4092723641772118       0.5731923942855642
5.88E9                   0.4569105492123212       0.5353362170569119
5.91E9                   0.5010536207763366       0.49354681351913066
5.94E9                   0.5413783258327562       0.4481466670503609
5.97E9                   0.5775911087182708       0.39948504522605205
6.0E9                    0.6094305256351338       0.3479353126246165
