% Model:              three_layers reality at 0.1mm.mph
% Version:            COMSOL 5.6.0.280
% Date:               Feb 26 2022, 11:25
% Table:              表格 1 - 全局计算 1
% freq (Hz)              real(emw.S11) (1)        imag(emw.S11) (1)
300000000                0.45559326741972744      -0.739962149453616
330000000                0.3806563333776387       -0.7777585240911379
360000000                0.30282982060851665      -0.808229052400853
390000000                0.22278768207763344      -0.831143675726813
420000000                0.1412312699439811       -0.846337343615892
450000000                0.05888029652832945      -0.8537126811214787
480000000                -0.023535582321833462    -0.85324157846336
510000000                -0.10528475328015202     -0.8449658506495226
540000000                -0.18564129042244135     -0.8289970579450922
570000000                -0.2638922926162414      -0.8055155499750266
600000000                -0.3393449113478661      -0.7747687823593554
630000000                -0.41133304870020937     -0.7370689491604216
660000000                -0.4792236932252052      -0.6927899728462845
690000000                -0.5424228551685037      -0.6423638952331601
720000000                -0.6003810619101636      -0.5862767143763701
750000000                -0.6525983729448668      -0.5250637164177946
780000000                -0.6986288770480429      -0.45930435403312697
810000000                -0.7380846371307005      -0.3896167263206045
840000000                -0.7706390522810196      -0.3166517183719144
870000000                -0.7960296120584553      -0.24108686038875154
900000000                -0.8140600229835648      -0.16361996889556096
930000000                -0.824601693286775       -0.084962633766346
960000000                -0.8275945681015318      -0.005833615220450093
990000000                -0.8230473133017897      0.07304778428174197
1020000000               -0.8110368526064999      0.15096830933487876
1050000000               -0.7917072686021136      0.22722723910103812
1080000000               -0.7652680845182904      0.3011427115834178
1110000000               -0.7319919492090412      0.37205782616264005
1140000000               -0.6922117535620127      0.43934646795023097
1170000000               -0.646317211399093       0.5024188020071556
1200000000               -0.5947509430414754      0.5607263883197835
1230000000               -0.5380041036681121      0.6137668736957471
1260000000               -0.47661160265525304     0.661088220871632
1290000000               -0.41114696320957506     0.7022924404471166
1320000000               -0.34221687428085856     0.7370387965475617
1350000000               -0.2704554890704663      0.7650464624142502
1380000000               -0.19651852580575754     0.7860966079446216
1410000000               -0.12107722749135857     0.8000339067589544
1440000000               -0.04481223780537871     0.8067674560253562
1470000000               0.03159254981638213      0.8062711079251556
1500000000               0.10745611380721343      0.7985832171553403
1530000000               0.1821063415830526       0.7838058141556367
1560000000               0.254885928971575        0.7621032189116405
1590000000               0.3251580906656777       0.7337001150745722
1620000000               0.3923120333342574       0.6988791087126441
1650000000               0.4557681457542181       0.6579778003353826
1680000000               0.5149828639323498       0.6113854027480946
1710000000               0.5694531728474747       0.5595389408694186
1740000000               0.6187207104114982       0.502919072913106
1770000000               0.6623754438182363       0.44204557499454666
1800000000               0.7000588928569045       0.37747253375921375
1830000000               0.7314668799374421       0.3097832934076805
1860000000               0.7563517918947746       0.23958520477679315
1890000000               0.7745243441710393       0.16750422513412155
1920000000               0.7858548443895235       0.09417941684626174
1950000000               0.7902739588489113       0.020257391961863425
1980000000               0.7877729926168524       -0.053613253228634
2010000000               0.7784037012985898       -0.12678747548241248
2040000000               0.76227765926172         -0.19862926471104211
2070000000               0.7395652135011904       -0.26851705313127955
2100000000               0.7104940503366948       -0.3358490615761062
2130000000               0.6753473867478577       -0.4000486203828115
2.16E9                   0.634461757677057        -0.4605695343514456
2.19E9                   0.588224290650336        -0.516901579271883
2.22E9                   0.537069231151205        -0.5685761846892667
2.25E9                   0.4814733287981769       -0.6151722097453984
2.28E9                   0.4219496132936694       -0.6563213886103532
2.31E9                   0.3590392833743421       -0.6917125263456896
2.34E9                   0.29330213247829134      -0.7210931196192866
2.37E9                   0.22530709145025637      -0.7442673149954151
2.4E9                    0.15562537040632218      -0.7610904808201581
2.43E9                   0.08482816100478985      -0.7714627271709674
2.46E9                   0.013488553421315254     -0.7753248273772831
2.49E9                   -0.05781525588592889     -0.7726587602416791
2.52E9                   -0.12849901044945752     -0.7634922290666217
2.55E9                   -0.19797547430407667     -0.7479043940039318
2.58E9                   -0.2656609358393346      -0.7260300858548893
2.61E9                   -0.3309832872894461      -0.6980612384682696
2.64E9                   -0.3933899959116873      -0.6642457079987003
2.67E9                   -0.452355065974162       -0.624884300230014
2.7E9                    -0.5073847785069343      -0.5803268213642759
2.73E9                   -0.558022351697763       -0.5309676958030921
2.76E9                   -0.6038517574131769      -0.47724142627228255
2.79E9                   -0.6445008945429329      -0.41961799851628023
2.82E9                   -0.6796442513936878      -0.3585982482366787
2.85E9                   -0.7090051290600927      -0.2947091794045911
2.88E9                   -0.7323574568881686      -0.22849922164035485
2.91E9                   -0.7495272073405836      -0.16053342366224715
2.94E9                   -0.7603934059455777      -0.09138859116246188
2.97E9                   -0.764888728016538       -0.021648387389819095
3.0E9                    -0.7629996741791403      0.04810157729167555
3.03E9                   -0.7547663196687182      0.11727863509225907
3.06E9                   -0.7402816366227738      0.18530789431000905
3.09E9                   -0.7196903935693442      0.25162697946056284
3.12E9                   -0.693187641446728       0.31569064073927255
3.15E9                   -0.6610168003934476      0.37697519675188795
3.18E9                   -0.6234673655650214      0.4349827774477416
3.21E9                   -0.5808722530279715      0.489245337671942
3.24E9                   -0.5336048078061587      0.5393284157922358
3.27E9                   -0.4820754953273606      0.5848346153008882
3.3E9                    -0.4267282952964571      0.6254067889635251
3.33E9                   -0.368036814190209       0.6607309044350247
3.36E9                   -0.3065001304570494      0.6905385667962949
3.39E9                   -0.24263838679468952     0.7146091672657464
3.42E9                   -0.17698814787341705     0.7327716196319124
3.45E9                   -0.1100975511344709      0.7449056382453595
3.48E9                   -0.04252129292152684     0.7509425064455105
3.51E9                   0.025184488219378666     0.7508652850047388
3.54E9                   0.09246734734918238      0.7447084195387408
3.57E9                   0.15878358460254471      0.7325567255848482
3.6E9                    0.2236030961919777       0.7145437592997985
3.63E9                   0.28641390863030924      0.6908496165229309
3.66E9                   0.34672629330806065      0.6616982366673301
3.69E9                   0.4040763834338865       0.6273543141985259
3.72E9                   0.45802924598017436      0.5881199361953025
3.75E9                   0.5081813923517678       0.5443310712589516
3.78E9                   0.5541627424472136       0.4963540366691575
3.81E9                   0.5956380910495895       0.4445820684231458
3.84E9                   0.6323081673488962       0.3894321066545152
3.87E9                   0.6639104238118869       0.3313418765325977
3.9E9                    0.6902197255895595       0.2707672842552594
3.93E9                   0.7110491150579794       0.20818006466702277
3.96E9                   0.7262507828999593       0.14406553271431927
3.99E9                   0.7357172896170383       0.07892023536159537
4.02E9                   0.7393829720824052       0.013249297951430953
4.05E9                   0.7372253727800158       -0.05243668591611146
4.08E9                   0.7292664749290619       -0.11762527568417712
4.11E9                   0.7155735282965918       -0.18180626442906886
4.14E9                   0.6962593019242846       -0.24447608030848264
4.17E9                   0.6714816805795594       -0.3051423240181485
4.2E9                    0.6414426062859317       -0.3633282557333263
4.23E9                   0.6063864333605754       -0.4185770800779917
4.26E9                   0.5665978021981053       -0.4704559332285723
4.29E9                   0.522399141069339        -0.5185595338511051
4.32E9                   0.47414788326129004      -0.5625135033911167
4.35E9                   0.42223345173423754      -0.6019773824766708
4.38E9                   0.3670740296817318       -0.6366473681461587
4.41E9                   0.3091131137395749       -0.6662587784167404
4.44E9                   0.24881584165716292      -0.6905882267487041
4.47E9                   0.1866650962482515       -0.7094554688136506
4.5E9                    0.12315740640889938      -0.7227248736433719
4.53E9                   0.05879868760655818      -0.7303064722124788
4.56E9                   -0.00590011661515657     -0.7321565476420842
4.59E9                   -0.07042741771415813     -0.7282777501865044
4.62E9                   -0.1342753112852364      -0.7187187439378135
4.65E9                   -0.19694378056669015     -0.7035734169198347
4.68E9                   -0.2579447211869349      -0.6829797062669032
4.71E9                   -0.31680576120728077     -0.6571180988656832
4.74E9                   -0.3730738792914239      -0.6262098602430912
4.77E9                   -0.4263188434881136      -0.5905150209920221
4.8E9                    -0.4761364944103499      -0.5503301184153183
4.83E9                   -0.5221518770367836      -0.5059856643932881
4.86E9                   -0.5640221915511271      -0.4578433009872619
4.89E9                   -0.6014394984854464      -0.4062926187699574
4.92E9                   -0.6341330906135355      -0.3517476455899668
4.95E9                   -0.661871441567628       -0.2946430556918328
4.98E9                   -0.6844636606831019      -0.23543018862304965
5.01E9                   -0.7017604206651644      -0.17457299455451059
5.04E9                   -0.7136543722155166      -0.11254403055114731
5.07E9                   -0.7200801083494593      -0.04982061719655328
5.1E9                    -0.7210137795192362      0.013118773155561751
5.13E9                   -0.7164724764146586      0.07579788100585273
5.16E9                   -0.7065134805398456      0.1377458210664124
5.19E9                   -0.6912334328413904      0.19850012650861482
5.22E9                   -0.6707674020941174      0.25760976714447187
5.25E9                   -0.6452877755594937      0.31463819223099754
5.28E9                   -0.6150028741364324      0.3691663772602791
5.31E9                   -0.5801552262803822      0.42079578499286213
5.34E9                   -0.5410195057971863      0.46915111930854114
5.37E9                   -0.49790021330980017     0.5138827727778669
5.4E9                    -0.4511292237951362      0.5546689332486605
5.43E9                   -0.40106331539951046     0.5912173897787975
5.46E9                   -0.3480817455357853      0.6232671311305027
5.49E9                   -0.2925838726102484      0.6505898434365947
5.52E9                   -0.23498676174707303     0.6729913881790178
5.55E9                   -0.1757226773266698      0.6903132909490751
5.58E9                   -0.11523635982539099     0.7024342122073313
5.61E9                   -0.05398200711756758     0.7092713172902223
5.64E9                   0.007580074347755961     0.7107814242478732
5.67E9                   0.06898712216745438      0.7069617929817342
5.7E9                    0.1297777820640917       0.6978504353618861
5.73E9                   0.18949603720645244      0.6835258772172388
5.76E9                   0.2476950365637876       0.6641063812337588
5.79E9                   0.30394068553048936      0.6397487199669989
5.82E9                   0.357814935260927        0.6106466361622532
5.85E9                   0.4089187932072461       0.5770291198869835
5.88E9                   0.45687513586234324      0.5391585740315973
5.91E9                   0.501331411355693        0.49732886374593727
5.94E9                   0.5419622795889251       0.4518631891045602
5.97E9                   0.5784721784144953       0.40311170363877
6.0E9                    0.6105977536989031       0.351448820962207
