% Model:              three_layers reality at 0.1mm.mph
% Version:            COMSOL 5.6.0.280
% Date:               Feb 26 2022, 15:12
% Table:              表格 1 - 全局计算 1
% freq (Hz)              real(emw.S11) (1)        imag(emw.S11) (1)
300000000                0.6092261768744308       -0.7421051284254534
330000000                0.542139099733879        -0.7917846945653969
360000000                0.47112547870967775      -0.835465553377612
390000000                0.396706976471606        -0.8728395705405174
420000000                0.3194315876743115       -0.9036429903087155
450000000                0.23986942825663535      -0.9276590061241884
480000000                0.15860837528381674      -0.9447198459495332
510000000                0.07624958145597614      -0.9547083920764783
540000000                -0.006597104221872208    -0.9575593469755614
570000000                -0.08931777876754587     -0.9532599540123349
600000000                -0.17129915647142582     -0.9418502796401503
630000000                -0.251933235425358       -0.923423063577895
660000000                -0.3306219251623457      -0.8981231439198663
690000000                -0.40678160017768594     -0.8661464657447218
720000000                -0.47984754532047813     -0.82773868345909
750000000                -0.5492782587962962      -0.7831933694865002
780000000                -0.6145595794264364      -0.7328498443295303
810000000                -0.6752086056752313      -0.6770906457929209
840000000                -0.7307773759517299      -0.6163386574238686
870000000                -0.7808562805349777      -0.5510539191606693
900000000                -0.8250771780084216      -0.48173014564103467
930000000                -0.8631161913419727      -0.4088909796055127
960000000                -0.8946961607665624      -0.3330860107473819
990000000                -0.9195887340189656      -0.2548865916021635
1020000000               -0.9376160770695         -0.1748814840264803
1050000000               -0.9486521915748292      -0.09367237166323716
1080000000               -0.9526238288676642      -0.011869274119423043
1110000000               -0.949510993387412       0.06991409989455051
1140000000               -0.9393470321215824      0.15106502321871162
1170000000               -0.9222183100002864      0.23097640700422858
1200000000               -0.8982634747749867      0.3090514064232001
1230000000               -0.8676723182910454      0.38470793838290346
1260000000               -0.8306842445081879      0.45738307548163687
1290000000               -0.7875863577325563      0.5265372817523791
1320000000               -0.7387111878776444      0.591658456684542
1350000000               -0.6844340721837855      0.6522657566536563
1380000000               -0.6251702158241954      0.7079131642967322
1410000000               -0.5613714560293159      0.7581927791352374
1440000000               -0.4935227568435079      0.8027378049350684
1470000000               -0.42213846334190547     0.8412252122809758
1500000000               -0.34775834600473465     0.8733780574596098
1530000000               -0.27094346708058126     0.8989674419063853
1560000000               -0.19227190209706535     0.9178140993272145
1590000000               -0.11233435017591767     0.929789600848525
1620000000               -0.03172966759614049     0.9348171715175658
1650000000               0.04893964113893841      0.9328721146936694
1680000000               0.1290719401433602       0.9239818438257695
1710000000               0.20807095317184443      0.9082255241615222
1740000000               0.28535019519243615      0.8857333298009857
1770000000               0.36033731209244224      0.8566853243414632
1800000000               0.4324782971540188       0.8213099759727197
1830000000               0.5012415539700978       0.7798823205028725
1860000000               0.5661217772515192       0.7327217880852831
1890000000               0.6266436243945016       0.6801897117272202
1920000000               0.682365152614905        0.622686537655585
1950000000               0.7328809983584659       0.5606487594950422
1980000000               0.7778252776912997       0.4945456000089468
2010000000               0.8168741888272614       0.4248754653941297
2040000000               0.8497482999207531       0.35216219874978183
2070000000               0.8762145080702493       0.27695115985986674
2100000000               0.8960876575801777       0.19980515962283718
2130000000               0.9092318083256402       0.12130027709827287
2.16E9                   0.9155611469690581       0.04202158739563031
2.19E9                   0.915040535502503        -0.037441172325916885
2.22E9                   0.9076856919233613       -0.11649797240221083
2.25E9                   0.8935629965269976       -0.19456286890456698
2.28E9                   0.8727889148703589       -0.2710583606965508
2.31E9                   0.845529027585386        -0.34541968706254284
2.34E9                   0.81199666396361         -0.41709901465207955
2.37E9                   0.7724511563458365       -0.48556945294362414
2.4E9                    0.7271957619346368       -0.5503288457890517
2.43E9                   0.6765753175402885       -0.6109033201822152
2.46E9                   0.6209736768862097       -0.6668506156678582
2.49E9                   0.5608109348896416       -0.7177632308993308
2.52E9                   0.49654040490577195      -0.7632713951164387
2.55E9                   0.428645317506648        -0.8030458258884153
2.58E9                   0.3576352425794429       -0.8368002111692182
2.61E9                   0.28404227050753866      -0.8642933613804706
2.64E9                   0.20841700311782552      -0.8853309997882168
2.67E9                   0.13132440293484696      -0.8997671787349596
2.7E9                    0.053339541744453815     -0.9075053187811147
2.73E9                   -0.02495671711567962     -0.908498870656255
2.76E9                   -0.1029820714266986      -0.9027516000697061
2.79E9                   -0.18015713738847713     -0.890317495613253
2.82E9                   -0.2559097807129062      -0.8713003009607514
2.85E9                   -0.3296793903437678      -0.845852674438651
2.88E9                   -0.4009210630246163      -0.8141749815172145
2.91E9                   -0.4691096674227989      -0.7765137284291669
2.94E9                   -0.5337437565656649      -0.7331596480907445
2.97E9                   -0.5943492984307442      -0.6844454523186588
3.0E9                    -0.6504831956728373      -0.6307432671802444
3.03E9                   -0.70173656695167        -0.5724617710097395
3.06E9                   -0.7477377641942153      -0.5100430571523019
3.09E9                   -0.7881551021073551      -0.44395924593542824
3.12E9                   -0.8226992787417544      -0.37470887234551603
3.15E9                   -0.8511254682204221      -0.3028130780701853
3.18E9                   -0.8732350697352068      -0.22881163784317948
3.21E9                   -0.8888770995697826      -0.15325885168665987
3.24E9                   -0.8979492160281549      -0.07671933543605736
3.27E9                   -0.900398370113742       2.362572317510756E-4
3.3E9                    -0.896221077878249       0.07703554769889413
3.33E9                   -0.8854633133543448      0.15310874660807441
3.36E9                   -0.8682200239570559      0.22789293561284976
3.39E9                   -0.8446342731519931      0.3008362836257064
3.42E9                   -0.8148960180334843      0.3714021647219287
3.45E9                   -0.7792405322921991      0.43907314576641304
3.48E9                   -0.7379464878853365      0.5033548126160708
3.51E9                   -0.6913337115962377      0.563779404923462
3.54E9                   -0.6397606355688754      0.6199092309859188
3.57E9                   -0.5836214638615854      0.6713398358490494
3.6E9                    -0.5233430797333039      0.7177028983230822
3.63E9                   -0.45938172107219977     0.7586688351496869
3.66E9                   -0.3922194532298388      0.793949093991744
3.69E9                   -0.3223604701416415      0.8232981202590903
3.72E9                   -0.2503272554042453      0.8465149863852507
3.75E9                   -0.17665663547487664     0.8634446756365746
3.78E9                   -0.10189575711503701     0.8739790159867493
3.81E9                   -0.0265980207238842      0.8780572630301159
3.84E9                   0.04868099984158985      0.8756663342085766
3.87E9                   0.12338762219488403      0.8668406995646107
3.9E9                    0.1969740787252322       0.8516619362797733
3.93E9                   0.2689024743059374       0.8302579551524985
3.96E9                   0.33864865612201794      0.8028019070131175
3.99E9                   0.4057059738688722       0.769510776466483
4.02E9                   0.46958890767642103      0.7306436702062313
4.05E9                   0.529836539531228        0.6864998082278225
4.08E9                   0.586015842577341        0.6374162287226492
4.11E9                   0.6377247620541777       0.5837652211648064
4.14E9                   0.6845950626062298       0.5259515061196657
4.17E9                   0.7262949188991229       0.464409184190986
4.2E9                    0.7625312298686471       0.3995984793211599
4.23E9                   0.7930516405536179       0.33200230362038985
4.26E9                   0.8176462593230607       0.2621226713404181
4.29E9                   0.8361490613667524       0.19047698961985415
4.32E9                   0.8484389718719694       0.11759425293517148
4.35E9                   0.8544406241010845       0.044011167539704105
4.38E9                   0.85412478892844         -0.029731768027249972
4.41E9                   0.8475084736724814       -0.10309420028466021
4.44E9                   0.8346546894830862       -0.1755398494448317
4.47E9                   0.8156718883640572       -0.24654040219411533
4.5E9                    0.7907130730851123       -0.3155793411465713
4.53E9                   0.7599745857480106       -0.38215568321579757
4.56E9                   0.7236945834636395       -0.4457875994675033
4.59E9                   0.6821512123046045       -0.5060158897588308
4.62E9                   0.6356604934004708       -0.5624072865592787
4.65E9                   0.5845739374845568       -0.6145575640252476
4.68E9                   0.5292759061870552       -0.6620944304540539
4.71E9                   0.47018073983439007      -0.7046801844137025
4.74E9                   0.40772967238166447      -0.742014116872428
4.77E9                   0.3423875546933749       -0.7738346432251224
4.8E9                    0.27463940787918695      -0.799921150225329
4.83E9                   0.2049868296110276       -0.8200955434561227
4.86E9                   0.13394427797630845      -0.8342234818709422
4.89E9                   0.06203525978233185      -0.8422152873477234
4.92E9                   -0.010211547463302752    -0.8440265195762848
4.95E9                   -0.0822662086186595      -0.839658209885803
4.98E9                   -0.1536014465369986      -0.8291567516160048
5.01E9                   -0.22369652774201115     -0.8126134489563178
5.04E9                   -0.2920410864196694      -0.79016373037774
5.07E9                   -0.35813885711936744     -0.7619860364627438
5.1E9                    -0.42151128922408054     -0.728300394615012
5.13E9                   -0.4817010190984342      -0.6893666945874981
5.16E9                   -0.5382751782928179      -0.6454826789110998
5.19E9                   -0.5908285169945068      -0.5969816619888934
5.22E9                   -0.638986321745991       -0.5442299914510216
5.25E9                   -0.6824071048775707      -0.48762426692264543
5.28E9                   -0.7207850422312956      -0.42758833476397184
5.31E9                   -0.7538521366592463      -0.3645700820695986
5.34E9                   -0.7813800880738662      -0.2990380578828637
5.37E9                   -0.8031818561011616      -0.2314779524989076
5.4E9                    -0.8191129071319966      -0.16238896587830046
5.43E9                   -0.8290721419487608      -0.09228009471344666
5.46E9                   -0.8330025027773685      -0.02166636485978088
5.49E9                   -0.8308912593374818      0.048934966124146904
5.52E9                   -0.8227699733237778      0.11900821264408101
5.55E9                   -0.8087141405569199      0.1880430466275166
5.58E9                   -0.788842510553582       0.25553823939841863
5.61E9                   -0.763316084799709       0.3210053322464141
5.64E9                   -0.7323367976778004      0.38397220622503786
5.67E9                   -0.6961458879173434      0.4439865202208513
5.7E9                    -0.6550219733747036      0.5006189860573482
5.73E9                   -0.6092788475583446      0.5534664508422094
5.76E9                   -0.5592630213624757      0.6021547605370987
5.79E9                   -0.5053510367528891      0.6463413842510572
5.82E9                   -0.4479465794991868      0.6857177847857777
5.85E9                   -0.38747741593713364     0.7200115254544014
5.88E9                   -0.32439217587706115     0.7489881049437183
5.91E9                   -0.2591570019065911      0.7724525115644351
5.94E9                   -0.19225208563635104     0.7902504869716974
5.97E9                   -0.12416811376048394     0.8022694889613261
6.0E9                    -0.05540264960212138     0.8084393442336296
