% Model:              three_layers reality at 0.1mm.mph
% Version:            COMSOL 5.6.0.280
% Date:               Feb 26 2022, 15:14
% Table:              表格 1 - 全局计算 1
% freq (Hz)              real(emw.S11) (1)        imag(emw.S11) (1)
300000000                0.609265680582563        -0.7421314080660993
330000000                0.5421758865145254       -0.7918159037711803
360000000                0.47115897901615666      -0.8355012328553815
390000000                0.3967367048791783       -0.8728792376729668
420000000                0.31945713196634423      -0.9036861433008343
450000000                0.23989044254125622      -0.9277051269252174
480000000                0.15862457527677734      -0.9447684030360421
510000000                0.07626074163997228      -0.9547588431154641
540000000                -0.006591152426713088    -0.9576111417227401
570000000                -0.0893171484324899      -0.9533125374960589
600000000                -0.17130390593385628     -0.9419030955639901
630000000                -0.25194336920730065     -0.9234755579645655
660000000                -0.33063739493652006     -0.898174768916644
690000000                -0.40680230572221865     -0.8661966835939838
720000000                -0.4798733358505358      -0.8277869705125088
750000000                -0.549308934512051       -0.7832392202525895
780000000                -0.6145948933299167      -0.7328927755160827
810000000                -0.675248265798669       -0.6771302002380607
840000000                -0.730821047839243       -0.6163744079197242
870000000                -0.7809035900997953      -0.551085472107639
900000000                -0.8251277147204727      -0.4817571444579972
930000000                -0.8631695117001481      -0.40891310790643864
960000000                -0.8947517920544368      -0.3331029952497703
990000000                -0.9196461783674407      -0.25489820462257556
1020000000               -0.9376748157009493      -0.17488754570254525
1050000000               -0.9487116892614182      -0.09367275181079132
1080000000               -0.9526835385720059      -0.011863893607912257
1110000000               -0.9495703610236929      0.06992526816461407
1140000000               -0.9394055013929808      0.1510819536951774
1170000000               -0.9222753272975113      0.23099902144375517
1200000000               -0.8983184940769846      0.3090795741497906
1230000000               -0.8677248060183452      0.38474147712407647
1260000000               -0.83073368431542        0.4574217525616622
1290000000               -0.7876322551703183      0.5265808157624664
1320000000               -0.738753074880236       0.5917065195927181
1350000000               -0.6844715114094199      0.652317976250908
1380000000               -0.6252028046863372      0.7079691271377035
1410000000               -0.5613988305078003      0.7582520337670656
1440000000               -0.4935445949583341      0.8027998655099919
1470000000               -0.4221544883478364      0.8412895624365586
1500000000               -0.3477683291383737      0.8734441545383153
1530000000               -0.27094722998719434     0.8990347213784571
1560000000               -0.19226931881320333     0.9178819794409349
1590000000               -0.11232534871032485     0.9298574874443946
1620000000               -0.03171423106291158     0.9348844629811247
1650000000               0.048961473834518904     0.9329382070002128
1680000000               0.12910007410774949      0.9240461356369443
1710000000               0.2081052377228776       0.9082874219290549
1740000000               0.28539042454895275      0.8857922528474861
1770000000               0.36038322651853466      0.8567407098656852
1800000000               0.4325295845462087       0.8213612839410929
1830000000               0.5012978518492854       0.77992903839959
1860000000               0.5661826751952358       0.7327634354666764
1890000000               0.6267086668178969       0.6802258445791042
1920000000               0.6824338419704254       0.6227167524642612
1950000000               0.7329527986113512       0.5606726970865511
1980000000               0.777899618153004        0.49456294904854997
2010000000               0.8169504682137568       0.42488596562481934
2040000000               0.8498258906817224       0.35216564388859917
2070000000               0.8762927609193142       0.2769474002085926
2100000000               0.8961659062193356       0.19979410443882173
2130000000               0.9093093744116172       0.12128189666548615
2.16E9                   0.9156373453274569       0.04199591497478975
2.19E9                   0.9151146797541927       -0.03747403880738571
2.22E9                   0.9077571006775046       -0.11653786884761033
2.25E9                   0.8936310003717814       -0.19460956406694546
2.28E9                   0.8728528642972254       -0.27111155609452625
2.31E9                   0.8455883017116993       -0.34547901847631757
2.34E9                   0.8120506794083298       -0.4171640558770916
2.37E9                   0.7724993750587758       -0.48563972203379707
2.4E9                    0.7272376966450974       -0.5504038131192174
2.43E9                   0.6766105340961606       -0.6109824167987391
2.46E9                   0.621001794083901        -0.6669332401114341
2.49E9                   0.5608316233175853       -0.7178487536526086
2.52E9                   0.4965533864691864       -0.7633591610004838
2.55E9                   0.42865036645866716      -0.8031351556062902
2.58E9                   0.3576321879726285       -0.8368904031688716
2.61E9                   0.28403099942897647      -0.8643836947374708
2.64E9                   0.20839746404341         -0.8854207382503971
2.67E9                   0.13129660864067053      -0.8998555757899598
2.7E9                    0.053303571537963994     -0.9075916234412486
2.73E9                   -0.025000715973244783    -0.9085823336992578
2.76E9                   -0.10303388307611244     -0.9028314805160795
2.79E9                   -0.18021647751918002     -0.8903930672921624
2.82E9                   -0.25597629743971145     -0.8713708590497223
2.85E9                   -0.32975266572063194     -0.8459175419098367
2.88E9                   -0.40100061522353325     -0.8142335154165089
2.91E9                   -0.46919495350548823     -0.7765653259479394
2.94E9                   -0.5338341757996047      -0.7332037523909745
2.97E9                   -0.594444196175747       -0.684481558050809
3.0E9                    -0.6505818677335307      -0.6307709256915222
3.03E9                   -0.7018382644550369      -0.5724805951509342
3.06E9                   -0.7478416988823506      -0.5100527256989725
3.09E9                   -0.7882604520674321      -0.44395950754698044
3.12E9                   -0.8228051945111095      -0.37469954904562847
3.15E9                   -0.8512310792273159      -0.30279406822867916
3.18E9                   -0.8733394910543448      -0.22878291860106278
3.21E9                   -0.8889794389364346      -0.15322048082671008
3.24E9                   -0.8980485810770569      -0.07667145266869413
3.27E9                   -0.9004938758080162      2.9342958076136765E-4
3.3E9                    -0.8963118540945181      0.07710170464188322
3.33E9                   -0.8855485125922851      0.1531835010552292
3.36E9                   -0.8682988291511866      0.22797581964386154
3.39E9                   -0.8447059055464872      0.300926750459508
3.42E9                   -0.8149597450842851      0.37149959146467276
3.45E9                   -0.7792956755221407      0.4391768370138121
3.48E9                   -0.737992430617493       0.5034640049471029
3.51E9                   -0.6913699064153971      0.5638932723975757
3.54E9                   -0.6397866113622778      0.6200268916503515
3.57E9                   -0.5836368322195997      0.671460359283226
3.6E9                    -0.5233475404950412      0.7178253141513968
3.63E9                   -0.459375066784442       0.7587921424042862
3.66E9                   -0.3922015723276198      0.7940722711215417
3.69E9                   -0.3223313486983564      0.8234201355299572
3.72E9                   -0.25028697735868255     0.8466348083777956
3.75E9                   -0.17660538141267745     0.8635612834819709
3.78E9                   -0.10183380162854015     0.8740914090658889
3.81E9                   -0.026525728631546033    0.8781644698218461
3.84E9                   0.04876317818400029      0.8757674201010368
3.87E9                   0.12347915610689882      0.866934773514425
3.9E9                    0.1970743625894972       0.8517481563592307
3.93E9                   0.26901083280324317      0.8303355331520038
3.96E9                   0.3387643491125751       0.8028701123749908
3.99E9                   0.4058282008357248       0.7695689398780199
4.02E9                   0.46971681179660796      0.7306911871703772
4.05E9                   0.5299692116010748       0.6865361428253008
4.08E9                   0.5861523250461541       0.6374409176686212
4.11E9                   0.6378640534048711       0.5837778781465691
4.14E9                   0.6847361223349755       0.5259518262545695
4.17E9                   0.7264366731842913       0.46439694843337814
4.2E9                    0.7626725779734799       0.3995735585891663
4.23E9                   0.7931914619041098       0.33196466247198314
4.26E9                   0.8177834211786756       0.26207237103371245
4.29E9                   0.8362824269471063       0.1904141905110429
4.32E9                   0.8485674088497603       0.11751921614938073
4.35E9                   0.8545630133741966       0.0439242559517134
4.38E9                   0.8542400336392554       -0.02983008956566434
4.41E9                   0.8476155084404514       -0.1032033654307507
4.44E9                   0.834752489835288        -0.17565919165490373
4.47E9                   0.8157594803220484       -0.2466691568811856
4.5E9                    0.7907895428481325       -0.3157166487672891
4.53E9                   0.7600390893651895       -0.382300593398225
4.56E9                   0.7237463563521747       -0.44593907624498397
4.59E9                   0.6821895784514492       -0.5061728179228443
4.62E9                   0.6356848740721454       -0.562568479119045
4.65E9                   0.5845838592625278       -0.614721770724845
4.68E9                   0.5292710081979927       -0.662260347233011
4.71E9                   0.47016078008037393      -0.7048464636885519
4.74E9                   0.40769453312200277      -0.7421793785296931
4.77E9                   0.3423372468233982       -0.7739974862635752
4.8E9                    0.2745740743100731       -0.8000801649834828
4.83E9                   0.20490674753693555      -0.8202493244327509
4.86E9                   0.13384985990399265      -0.8343706411096824
4.89E9                   0.061927053139168464     -0.8423544682998172
4.92E9                   -0.010332862367628337    -0.8441564112829915
4.95E9                   -0.08239982243704223     -0.8397775612011107
4.98E9                   -0.1537464266620237      -0.8292643851148229
5.01E9                   -0.22385182597951936     -0.8127082741076492
5.04E9                   -0.2922055483887552      -0.7902447555804126
5.07E9                   -0.35831123306216733     -0.7620523796167584
5.1E9                    -0.4216902458383153      -0.7283512920403972
5.13E9                   -0.481885151980447       -0.6894015082601528
5.16E9                   -0.5384630246526211      -0.645500902140377
5.19E9                   -0.5910185684291388      -0.5969829237477773
5.22E9                   -0.639177037020057       -0.5442140595436847
5.25E9                   -0.682596922752631       -0.48759105008331666
5.28E9                   -0.7209723943672661      -0.42753788366662304
5.31E9                   -0.754035460537881       -0.36450258913020894
5.34E9                   -0.7815578397660334      -0.2989538557493448
5.37E9                   -0.803352522588482       -0.23137751124986328
5.4E9                    -0.8192750179149132      -0.16227288908161372
5.43E9                   -0.8292242797621596      -0.09214911464653669
5.46E9                   -0.8331433134055573      -0.02152133725121102
5.49E9                   -0.8310194606997001      0.04909306756377138
5.52E9                   -0.822884364108659       0.11917830169916617
5.55E9                   -0.8088136087446082      0.18822393006320348
5.58E9                   -0.7889260421051529      0.255728622688782
5.61E9                   -0.7633827726697373      0.32120382580913015
5.64E9                   -0.7323858511305241      0.3841773325666958
5.67E9                   -0.6961766419204447      0.4441967223517429
5.7E9                    -0.6550338977009087      0.5008326373782364
5.73E9                   -0.6092715551213188      0.5536818665495571
5.76E9                   -0.5592362753726883      0.6023702103440278
5.79E9                   -0.5053047564248402      0.6465551060778822
5.82E9                   -0.44788084424905955     0.6859279990462066
5.85E9                   -0.38739246820404455     0.7202164496422623
5.88E9                   -0.32428842274151654     0.7491859684295928
5.91E9                   -0.2590350156245128      0.7726415706563783
5.94E9                   -0.19211260308189787     0.7904290403671184
5.97E9                   -0.12401203457835344     0.8024358937050251
6.0E9                    -0.05523103276884971     0.8085920321710534
