% Model:              three_layers reality at 0.1mm.mph
% Version:            COMSOL 5.6.0.280
% Date:               Feb 26 2022, 15:11
% Table:              表格 1 - 全局计算 1
% freq (Hz)              real(emw.S11) (1)        imag(emw.S11) (1)
300000000                0.6091679843733119       -0.7420628424211521
330000000                0.5420854876237657       -0.7917350126442813
360000000                0.4710772967875938       -0.8354092360632608
390000000                0.39666494129824237      -0.8727774095463394
420000000                0.31939629921855367      -0.9035758027593461
450000000                0.23984138115586298      -0.9275876299279343
480000000                0.15858796594765645      -0.9446451357103245
510000000                0.07623711257158271      -0.954631214838078
540000000                -0.006601420399247715    -0.9574805775090625
570000000                -0.08931381842186498     -0.9531804697745054
600000000                -0.17128688229374928     -0.9417709552458732
630000000                -0.2519126950150485      -0.9233447649569693
660000000                -0.33059324928653055     -0.898046722192785
690000000                -0.40674500062852603     -0.8660727509323165
720000000                -0.47980331251501945     -0.8276684780897066
750000000                -0.5492267588596381      -0.7831274422219215
780000000                -0.6145012507602264      -0.7327889236834055
810000000                -0.675143955057015       -0.6770354140051276
840000000                -0.7307069740216386      -0.616289744623218
870000000                -0.7807807568282961      -0.5510118978283555
900000000                -0.8249972154704596      -0.481695525467563
930000000                -0.8630325203582446      -0.40886420282429925
960000000                -0.8946095527769728      -0.3330674479748772
990000000                -0.9194999947559475      -0.25487653821070827
1020000000               -0.9375260394376158      -0.17488015718886493
1050000000               -0.9485617082725011      -0.09367990801450171
1080000000               -0.952533764799524       -0.011885728066626917
1110000000               -0.9494222179234714      0.0698887571388878
1140000000               -0.9392604112704899      0.15103090385886353
1170000000               -0.9221346985761987      0.23093370622866483
1200000000               -0.8981837086105398      0.30900040118928845
1230000000               -0.8675972065742535      0.3846489855102147
1260000000               -0.8306145623221406      0.45731660901100474
1290000000               -0.787522838844044       0.526463809636269
1320000000               -0.7386545178351335      0.5915785568315902
1350000000               -0.6843848818449367      0.6521800722742882
1380000000               -0.6251290752561278      0.707822398750251
1410000000               -0.5613388689567302      0.7580976901532688
1440000000               -0.4934991556371653      0.8026391983588822
1470000000               -0.4221242045768994      0.8411239353659279
1500000000               -0.3477537066367091      0.8732749917809306
1530000000               -0.27094864134751584     0.8988634959034851
1560000000               -0.19228699902892857     0.9177102006159127
1590000000               -0.11235939187494354     0.9296866882948667
1620000000               -0.03176458822832569     0.9347161871828228
1650000000               0.04889499560713535      0.9327739957004632
1680000000               0.12901781149095354      0.9238875142204978
1710000000               0.20800766970944942      0.9081358868311945
1740000000               0.2852781697998223       0.8856492585246589
1770000000               0.36025703957401056      0.8566076560306112
1800000000               0.4323903509263076       0.8212395031506248
1830000000               0.5011465820004413       0.7798197841315362
1860000000               0.5660204974454238       0.7326678707325454
1890000000               0.6265368193435545       0.6801450311860657
1920000000               0.6822536638302434       0.6226516410084828
1950000000               0.7327657199628107       0.560624117731996
1980000000               0.7777071497215424       0.4945316031374727
2010000000               0.8167541900920394       0.4248724181773719
2040000000               0.8496274405554601       0.35217031699122237
2070000000               0.8760938217979501       0.2769705672627169
2100000000               0.8959681937119641       0.19983588523081713
2130000000               0.9091146235308885       0.12134225321420584
2.16E9                   0.915447296745969        0.04207464803409412
2.19E9                   0.9149310652764151       -0.03737729253070137
2.22E9                   0.90758162759624         -0.11642363872830608
2.25E9                   0.8934653342856195       -0.19447854627374875
2.28E9                   0.8726986101453307       -0.27096461217381973
2.31E9                   0.8454469833480914       -0.34531717042628374
2.34E9                   0.8119237190850964       -0.4169884763507272
2.37E9                   0.7723880752836664       -0.48545171928412884
2.4E9                    0.7271432271626352       -0.5502048120533475
2.43E9                   0.6765339253830149       -0.6107739394163202
2.46E9                   0.6209439362118112       -0.6667168888691555
2.49E9                   0.5607932669442274       -0.7176261996199944
2.52E9                   0.49653514266225884      -0.7631321360099297
2.55E9                   0.4286527036670876       -0.8029054460030546
2.58E9                   0.3576554263457439       -0.8366598427843244
2.61E9                   0.2840753038976267       -0.8641541556528148
2.64E9                   0.2084628374717326       -0.8851941191460757
2.67E9                   0.13138288619899258      -0.8996337882051724
2.7E9                    0.05341041679653369      -0.9073765765910604
2.73E9                   -0.02487381299750844     -0.9083759184223027
2.76E9                   -0.10288760592558788     -0.9026355528229676
2.79E9                   -0.1800516814421796      -0.8902094318536279
2.82E9                   -0.2557940057536854      -0.8712012528753714
2.85E9                   -0.32955406454939046     -0.845763618397252
2.88E9                   -0.4007870466830566      -0.8140968289162726
2.91E9                   -0.46896790740555566     -0.7764473169785833
2.94E9                   -0.5335952799983894      -0.7331057335992249
2.97E9                   -0.5941952056237209      -0.6844047010289565
3.0E9                    -0.6503246522966752      -0.6307162487603821
3.03E9                   -0.7015747956174279      -0.5724489521838836
3.06E9                   -0.7475740353860161      -0.5100447961104322
3.09E9                   -0.787990724622959       -0.4439757874933288
3.12E9                   -0.8225355896470614      -0.3747403439539305
3.15E9                   -0.8509638224110804      -0.3028594866940691
3.18E9                   -0.8730768291817039      -0.2288728677317109
3.21E9                   -0.8887236223063065      -0.15333466307928642
3.24E9                   -0.8978018449618053      -0.07680936422905159
3.27E9                   -0.9002584217323014      1.3249888740590323E-4
3.3E9                    -0.8960898309072928      0.07691866980745361
3.33E9                   -0.8853419974306592      0.1529794787469003
3.36E9                   -0.8681098083797982      0.22775212335819872
3.39E9                   -0.8445362557708176      0.3006848839223774
3.42E9                   -0.8148112143477189      0.37124124020022803
3.45E9                   -0.7791698648506791      0.4389038579209592
3.48E9                   -0.7378907761145854      0.5031784138088748
3.51E9                   -0.6912936621991045      0.5635972291867527
3.54E9                   -0.6397368337095375      0.6197226835727272
3.57E9                   -0.5836143653318725      0.6711503816127116
3.6E9                    -0.5233530043887902      0.7175120489590114
3.63E9                   -0.45940884772457463     0.7584781355262842
3.66E9                   -0.3922638162562539      0.7937601077606584
3.69E9                   -0.32242195793069445     0.8231124150739086
3.72E9                   -0.2504056106813364      0.8463341190899503
3.75E9                   -0.17675145756648583     0.8632701777440565
3.78E9                   -0.10200650591638266     0.8738123798601575
3.81E9                   -0.026724022247996082    0.8778999290388022
3.84E9                   0.04854054672652666      0.8755196791252344
3.87E9                   0.1232336381698973       0.866706026313731
3.9E9                    0.19680759596669972      0.8515404650293279
3.93E9                   0.2687246283371724       0.830150815589218
3.96E9                   0.33846067778817557      0.8027101315321549
3.99E9                   0.40550918153375193      0.7694352939504285
4.02E9                   0.46938469955651707      0.7305853001039966
4.05E9                   0.5296263860167812       0.6864592546983006
4.08E9                   0.585801278254895        0.6373940747778353
4.11E9                   0.637507377173813        0.5837619228684562
4.14E9                   0.6843764938474348       0.5259673869668455
4.17E9                   0.726076839289377        0.46444442993082186
4.2E9                    0.7623153378978614       0.39965313340937947
4.23E9                   0.792839648535598        0.33207626354405906
4.26E9                   0.8174398811689958       0.2622156859225963
4.29E9                   0.8359499999070703       0.19058865741427744
4.32E9                   0.8482489058744289       0.11772402171868344
4.35E9                   0.8542611950917884       0.04415833491779905
4.38E9                   0.8539575878915674       -0.029568052909218462
4.41E9                   0.8473550276869091       -0.10291493392237756
4.44E9                   0.83451644834586         -0.17534616997734845
4.47E9                   0.8155502112667623       -0.24633358422797277
4.5E9                    0.7906092154470941       -0.3153607892561372
4.53E9                   0.7598896863410318       -0.38192692410133605
4.56E9                   0.7236296520014168       -0.44555027271233744
4.59E9                   0.682107117687001        -0.5057717371987576
4.62E9                   0.6356379528366365       -0.5621581402754215
4.65E9                   0.5845735066817642       -0.6143053330821111
4.68E9                   0.5292979707509211       -0.661841086538721
4.71E9                   0.47022550801311597      -0.7044277464982662
4.74E9                   0.40779716921077025      -0.7417646350686167
4.77E9                   0.3424776175586818       -0.7735901819534918
4.8E9                    0.2747516835822152       -0.7996837707452669
4.83E9                   0.20512077298181028      -0.8198672858344374
4.86E9                   0.13409915220075277      -0.8340063464370824
4.89E9                   0.06221013862520124      -0.8420112157612668
4.92E9                   -0.01001777531406045     -0.8438373757205799
4.95E9                   -0.08205483292156082     -0.8394857609112899
4.98E9                   -0.15337392650000742     -0.8290026495515097
5.01E9                   -0.223454480687147       -0.8124792133518355
5.04E9                   -0.2917862743499738      -0.7900507324303484
5.07E9                   -0.3578731714962793      -0.7618954849970135
5.1E9                    -0.42123673443690807     -0.7282333241359669
5.13E9                   -0.4814196950679384      -0.6893239554510942
5.16E9                   -0.537989262585209       -0.6454649295117161
5.19E9                   -0.5905402467267143      -0.5969893627417057
5.22E9                   -0.638697975320203       -0.5442634004218854
5.25E9                   -0.682120983593806       -0.48768343698606886
5.28E9                   -0.7205034517475938      -0.4276731123596771
5.31E9                   -0.7535773684230481      -0.3646801076566267
5.34E9                   -0.7811144009430864      -0.2991727682217777
5.37E9                   -0.8029274585063807      -0.23163658472542845
5.4E9                    -0.8188719400949082      -0.16257056320022278
5.43E9                   -0.8288466631868936      -0.09248351338875505
5.46E9                   -0.8327944719269649      -0.021890282088758352
5.49E9                   -0.8307025241521718      0.04869204374441412
5.52E9                   -0.822602256569606       0.11874794028641633
5.55E9                   -0.8085690272824281      0.1877672320148929
5.58E9                   -0.788721435468537       0.2552488330576135
5.61E9                   -0.7632203196270917      0.32070441687633305
5.64E9                   -0.7322674385347782      0.38366198483964287
5.67E9                   -0.6961038429896922      0.4436693026958599
5.7E9                    -0.6550079513133474      0.5002971739001648
5.73E9                   -0.6092933471144536      0.5531425201868293
5.76E9                   -0.5593063227068601      0.6018312436314588
5.79E9                   -0.5054231947839333      0.6460208498244517
5.82E9                   -0.4480474191782362      0.6854028177616196
5.85E9                   -0.3876065295417539      0.7197047063200602
5.88E9                   -0.3245489219566263      0.7486919889413746
5.91E9                   -0.2593405058134149      0.7721696076657185
5.94E9                   -0.19246124166413808     0.789983236523599
5.97E9                   -0.12440158907412863     0.8020202439367083
6.0E9                    -0.05565889025894499     0.8082103451353648
