% Model:              three_layers reality at 0.1mm.mph
% Version:            COMSOL 5.6.0.280
% Date:               Mar 10 2022, 19:44
% Table:              表格 1 - 全局计算 1
% freq (Hz)              real(emw.S11) (1)        imag(emw.S11) (1)
300000000                0.42116462216145756      -0.8120338318108082
330000000                0.33247083037284036      -0.8492053198267467
360000000                0.24078923770893682      -0.8769269396501864
390000000                0.1470789659647423       -0.8949671450714232
420000000                0.05232508785653139      -0.9031904368795344
450000000                -0.04247337553508306     -0.90156124722058
480000000                -0.13631536076414205     -0.8901459407895671
510000000                -0.2282094913511184      -0.869113164256122
540000000                -0.31718553890685053     -0.8387327018191064
570000000                -0.40230551723021635     -0.7993729560501175
600000000                -0.48267430752188195     -0.75149715416243
630000000                -0.5574497111455599      -0.6956583728153034
660000000                -0.625851829551233       -0.6324934736793408
690000000                -0.6871716749257021      -0.5627160455345477
720000000                -0.7407789224442276      -0.487108453592328
750000000                -0.7861287232715946      -0.4065131028783225
780000000                -0.8227675075751235      -0.321823028608383
810000000                -0.8503377181576259      -0.23397193200711974
840000000                -0.8685814277565381      -0.14392378457227173
870000000                -0.8773428060863554      -0.052662127324470336
900000000                -0.876569416361644       0.03882080612486467
930000000                -0.8663123350853532      0.12953501353222766
960000000                -0.8467251028414339      0.2185035662931208
990000000                -0.8180615277376868      0.30477324414928164
1020000000               -0.7806723766510671      0.38742484003806954
1050000000               -0.7350010023015283      0.4655830185574236
1080000000               -0.681577966434034       0.5384256179741069
1110000000               -0.6210147304215085      0.6051922943074832
1140000000               -0.5539964949909909      0.6651924146875638
1170000000               -0.4812742793904381      0.7178121180041223
1200000000               -0.40365633826337866     0.7625204714684698
1230000000               -0.3219990203987741      0.7988746638123813
1260000000               -0.23719717856369835     0.826524187786284
1290000000               -0.15017424288537723     0.8452139772324299
1320000000               -0.0618720722020548      0.8547864765729538
1350000000               0.02675930175280339      0.8551826331134973
1380000000               0.11477192337848337      0.8464418148823898
1410000000               0.20123004339390427      0.8287006686604766
1440000000               0.285220022090294        0.8021909443793881
1470000000               0.3658599014771824       0.7672363228167658
1500000000               0.4423085480650055       0.7242482937766437
1530000000               0.5137742745628451       0.6737211411098702
1560000000               0.5795228557849885       0.6162260995397455
1590000000               0.6388848622741019       0.5524047557211921
1620000000               0.691262243683195        0.4829617725417258
1650000000               0.7361341029743174       0.40865702129761766
1680000000               0.7730616119672682       0.3302972109949101
1710000000               0.8016920285064626       0.2487271076060973
1740000000               0.8217617854884044       0.16482043872881041
1770000000               0.8330986320869276       0.07947058058902866
1800000000               0.8356228176743841       -0.0064188750096083255
1830000000               0.8293473191768769       -0.09194357680014545
1860000000               0.8143771227934838       -0.1762077979445361
1890000000               0.7909075810980032       -0.25833365526802726
1920000000               0.7592218764728884       -0.3374700758745301
1950000000               0.7196876313036903       -0.4128014293736049
1980000000               0.6727527141101579       -0.4835557522343139
2010000000               0.6189402978505054       -0.5490125020773976
2040000000               0.5588432305709183       -0.6085097942506116
2070000000               0.4931177769277055       -0.6614510909730962
2100000000               0.422476776904316        -0.7073113342684616
2130000000               0.3476822398261685       -0.7456425323146402
2.16E9                   0.26953733955666304      -0.7760788145057632
2.19E9                   0.18887769936126714      -0.7983409392105018
2.22E9                   0.10656176773690369      -0.8122401331900045
2.25E9                   0.02346005024486715      -0.8176809216645824
2.28E9                   -0.05955689700738081     -0.8146622771206732
2.31E9                   -0.14163132425575126     -0.8032761162636058
2.34E9                   -0.22193074704423055     -0.7837022735313535
2.37E9                   -0.29965791429931177     -0.7562000225089224
2.4E9                    -0.3740562813640586      -0.72109796661306
2.43E9                   -0.44441073810871795     -0.6787855672698019
2.46E9                   -0.5100460398340101      -0.6297090837009329
2.49E9                   -0.5703268287254565      -0.5743720053456222
2.52E9                   -0.6246618556732237      -0.5133372030434321
2.55E9                   -0.6725121519258337      -0.447227322936312
2.58E9                   -0.7134008651719719      -0.3767214944329518
2.61E9                   -0.7469223459806875      -0.30254847632094145
2.64E9                   -0.7727491247660843      -0.22547749543279605
2.67E9                   -0.7906365127488135      -0.14630809930125394
2.7E9                    -0.8004251541462862      -0.06585990344936835
2.73E9                   -0.8020419955973701      0.015037345509001593
2.76E9                   -0.7955000534609127      0.09555325972203649
2.79E9                   -0.7808972246599082      0.174865849266037
2.82E9                   -0.75841427901986        0.25217013762366364
2.85E9                   -0.7283121056261316      0.3266863686296069
2.88E9                   -0.6909282540948019      0.3976677975805098
2.91E9                   -0.6466728011948638      0.46440803887999654
2.94E9                   -0.596023574196594       0.526247928803883
2.97E9                   -0.5395207686541333      0.5825818543286155
3.0E9                    -0.4777610065801783      0.6328634965689762
3.03E9                   -0.4113908894128369      0.6766109388308355
3.06E9                   -0.3411001080192209      0.7134110934928316
3.09E9                   -0.2676141784724324      0.7429234084841478
3.12E9                   -0.1916868773798827      0.7648828220574796
3.15E9                   -0.11409245355114468     0.7791019436090559
3.18E9                   -0.035617693761459894    0.7854724475626198
3.21E9                   0.04294608091496937      0.7839656761495408
3.24E9                   0.12081101474236178      0.7746324542591422
3.27E9                   0.19720064353469147      0.7576021247584853
3.3E9                    0.27135768189890613      0.7330808153418551
3.33E9                   0.34255160821311503      0.7013489484085424
3.36E9                   0.4100859833154232       0.6627580046269217
3.39E9                   0.47330543448781914      0.6177265504864747
3.42E9                   0.5316022281082393       0.5667355423474575
3.45E9                   0.5844223433891521       0.5103229267102322
3.48E9                   0.6312709482246316       0.4490775706038093
3.51E9                   0.67171716982857         0.3836325783025053
3.54E9                   0.7053980521647507       0.3146580801802179
3.57E9                   0.7320216034061432       0.24285361305431763
3.6E9                    0.7513688623054858       0.16894024279949543
3.63E9                   0.7632949511165027       0.09365260204367283
3.66E9                   0.7677291290890751       0.017731022537792785
3.69E9                   0.7646739064939724       -0.058086068269007286
3.72E9                   0.7542033178546209       -0.13306934028044234
3.75E9                   0.7364604824389794       -0.2065052281425769
3.78E9                   0.7116546025626338       -0.27770199270768114
3.81E9                   0.6800575682814934       -0.34599513797826903
3.84E9                   0.6420003464978241       -0.4107521988357287
3.87E9                   0.597869321220735        -0.47137698177159265
3.9E9                    0.5481027054262952       -0.5273134092479135
3.93E9                   0.49318705970268195      -0.5780491638702705
3.96E9                   0.4336538437405093       -0.6231193255694003
3.99E9                   0.37007582666694483      -0.6621101309299385
4.02E9                   0.3030631272651048       -0.6946628713283464
4.05E9                   0.23325866745188098      -0.7204778187654997
4.08E9                   0.16133289879458915      -0.7393179656948117
4.11E9                   0.0879777767140956       -0.7510123170287125
4.14E9                   0.013900074543770558     -0.7554584872930721
4.17E9                   -0.060185781502998026    -0.752624421258458
4.2E9                    -0.13356513259297673     -0.7425491475866961
4.23E9                   -0.20553054386112138     -0.725342565050489
4.26E9                   -0.2753891194194069      -0.701184328199373
4.29E9                   -0.34246955628772846     -0.6703219327036612
4.32E9                   -0.40612887321821944     -0.6330681002974983
4.35E9                   -0.4657587877026137      -0.589797539344063
4.38E9                   -0.5207917271038793      -0.5409431249360805
4.41E9                   -0.5707064506799716      -0.48699151688088993
4.44E9                   -0.6150332381732201      -0.42847822381958783
4.47E9                   -0.653358578568094       -0.3659821289020961
4.5E9                    -0.6853292784616754      -0.30011951263261716
4.53E9                   -0.7106559073710319      -0.23153763507653433
4.56E9                   -0.7291155078036419      -0.16090796626927606
4.59E9                   -0.7405535195095644      -0.08891917504013057
4.62E9                   -0.7448848971165534      -0.01626999854356571
4.65E9                   -0.7420944341087258      0.056337886121295866
4.68E9                   -0.7322363372169508      0.12820688270093805
4.71E9                   -0.7154331153691633      0.19865031240277845
4.74E9                   -0.6918738491794029      0.2669990243785344
4.77E9                   -0.6618118887552019      0.3326077661469944
4.8E9                    -0.6255619964366324      0.39486130943847153
4.83E9                   -0.5834969211851012      0.45318031233245926
4.86E9                   -0.5360433780526307      0.5070268649218658
4.89E9                   -0.4836774182495074      0.5559096271259429
4.92E9                   -0.42691921123605037     0.5993884395410909
4.95E9                   -0.366327309658065       0.6370782829844874
4.98E9                   -0.30249251719497255     0.66865248294453
5.01E9                   -0.23603151590236415     0.693845098257269
5.04E9                   -0.16758042419717115     0.7124524908433291
5.07E9                   -0.09778844374831053     0.7243341343002201
5.1E9                    -0.02731171222267186     0.7294127698167372
5.13E9                   0.04319258475968102      0.727674043107305
5.16E9                   0.11307185920474261      0.7191657436665599
5.19E9                   0.18168359297980424      0.7039967160253305
5.22E9                   0.24840071651446627      0.6823354377834261
5.25E9                   0.31261693287750225      0.6544081928057319
5.28E9                   0.37375194900348846      0.6204967443315008
5.31E9                   0.43125649993007364      0.5809354479098433
5.34E9                   0.4846170174472523       0.5361078232762261
5.37E9                   0.5333598207083409       0.4864426881681137
5.4E9                    0.5770547800095159       0.43241000459661694
5.43E9                   0.6153184899683382       0.37451657928948917
5.46E9                   0.6478170477225191       0.3133017036025081
5.49E9                   0.6742685453790334       0.24933274177787568
5.52E9                   0.6944453551421912       0.1832006099362098
5.55E9                   0.7081762264627856       0.11551505114165404
5.58E9                   0.7153481469947732       0.046899610771591604
5.61E9                   0.715907859948813        -0.02201375181114351
5.64E9                   0.70986289173898         -0.0905904221086183
5.67E9                   0.6972819351674006       -0.15819919374133967
5.7E9                    0.6782944624046707       -0.22421849566617857
5.73E9                   0.6530895099351973       -0.2880425879632913
5.76E9                   0.6219136712324854       -0.3490875192139518
5.79E9                   0.5850684211439486       -0.4067966835227956
5.82E9                   0.5429069408490875       -0.46064590480816286
5.85E9                   0.4958305925072093       -0.5101480712319632
5.88E9                   0.44428512119344393      -0.5548573988888436
5.91E9                   0.38875657886644377      -0.5943733993291834
5.94E9                   0.3297669122032195       -0.6283445726289502
5.97E9                   0.26786915108614534      -0.6564717805249947
6.0E9                    0.20364216851287545      -0.6785112034716809
