% Model:              cali 3.02 0.91mm.mph
% Version:            COMSOL 5.6.0.280
% Date:               Feb 21 2022, 21:12
% Table:              表格 1 - 全局计算 1
% freq (Hz)              real(emw.S11) (1)        imag(emw.S11) (1)
300000000                0.5394592171514008       -0.8222919819128616
330000000                0.4548633864322364       -0.8688109949113658
360000000                0.36645321188407165      -0.9064375584349934
390000000                0.275190028098363        -0.9348988161698104
420000000                0.18204579373997165      -0.954029179420465
450000000                0.08799081937467133      -0.9637684499718431
480000000                -0.00601775307793222     -0.9641585505514754
510000000                -0.09904657858814794     -0.9553390495590544
540000000                -0.19019574567635475     -0.9375416735114543
570000000                -0.27860735903753814     -0.9110839991770221
600000000                -0.3634730397075546      -0.8763625096456288
630000000                -0.44404034287592575     -0.8338451858740883
660000000                -0.5196181172972594      -0.7840637889703359
690000000                -0.5895808480829533      -0.7276059704181709
720000000                -0.6533720384366006      -0.6651073281961448
750000000                -0.7105066944173809      -0.5972435078457481
780000000                -0.7605729813390675      -0.5247224299154164
810000000                -0.8032331225118728      -0.44827670836408606
840000000                -0.8382236095377126      -0.368656310307527
870000000                -0.8653547904328971      -0.2866214952720615
900000000                -0.8845098979639812      -0.20293606128098998
930000000                -0.8956435751037829      -0.11836091759397771
960000000                -0.8987799495676232      -0.033647996836722316
990000000                -0.8940103037670915      0.050465484682254605
1020000000               -0.8814903817199424      0.13326241351153698
1050000000               -0.8614373697924717      0.21405080921487182
1080000000               -0.8341265842679676      0.2921684961559818
1110000000               -0.799887895409602       0.36698741552655584
1140000000               -0.7591019151418282      0.43791757588701175
1170000000               -0.7121959734728588      0.5044106405599618
1200000000               -0.6596399074449505      0.5659631495968213
1230000000               -0.6019416856169633      0.6221193735700039
1260000000               -0.5396428907487058      0.6724737961773963
1290000000               -0.47331408332033775     0.7166732225059222
1320000000               -0.4035500689532594      0.7544185097433127
1350000000               -0.3309650933331906      0.78546591749952
1380000000               -0.25618798883987326     0.8096280755491096
1410000000               -0.1798572979298939      0.8267745676029282
1440000000               -0.10261639906585424     0.8368321309131128
1470000000               -0.02510866157832723     0.8397844729873581
1500000000               0.05202734355510046      0.8356717083196863
1530000000               0.12816254963653348      0.8245894199484369
1560000000               0.2026819894479157       0.8066873526933138
1590000000               0.27498925235624155      0.7821677470775099
1620000000               0.34451077631729743      0.751283325123716
1650000000               0.4106999484908871       0.7143349414042455
1680000000               0.47304098897680424      0.6716689148433076
1710000000               0.5310525933151301       0.6236740587975784
1740000000               0.5842913106504511       0.5707784288382947
1770000000               0.6323546357627582       0.5134458095206887
1800000000               0.6748837947973026       0.45217196306676305
1830000000               0.7115662059927296       0.38748066465032566
1860000000               0.7421375986048897       0.3199195504286645
1890000000               0.7663837750309672       0.2500558060637867
1920000000               0.7841420032688717       0.17847172480765397
1950000000               0.7953020290908968       0.10576016551598191
1980000000               0.7998066997134359       0.0325199419315866
2010000000               0.7976521932716949       -0.040648824373916564
2040000000               0.788887851088802        -0.11314935453423343
2070000000               0.7736156124448634       -0.18439283298061143
2100000000               0.7519890543724419       -0.2538029645095567
2130000000               0.7242120418482028       -0.3208204343045794
2.16E9                   0.690536996682014        -0.38490723757365436
2.19E9                   0.6512627962555403       -0.44555084619553614
2.22E9                   0.6067323162347442       -0.5022681803707506
2.25E9                   0.5573296341891316       -0.5546093545505085
2.28E9                   0.5034769138045102       -0.602161168259374
2.31E9                   0.44563099209012835      -0.6445503140408017
2.34E9                   0.3842796943777165       -0.6814462767546402
2.37E9                   0.31993790430850827      -0.7125639005194713
2.4E9                    0.25314341807596213      -0.7376656019743563
2.43E9                   0.18445261413918176      -0.7565632110447968
2.46E9                   0.11443597130757066      -0.7691194230748453
2.49E9                   0.04367346967849013      -0.7752488490230024
2.52E9                   -0.027250089870300087    -0.7749186534185237
2.55E9                   -0.09774981082022212     -0.7681487729159099
2.58E9                   -0.16724543318000135     -0.7550117115613246
2.61E9                   -0.23516603459798563     -0.7356319123118902
2.64E9                   -0.3009546621127739      -0.7101847078580457
2.67E9                   -0.36407285647163756     -0.6788948573618951
2.7E9                    -0.42400503141998946     -0.642034679335321
2.73E9                   -0.48026267136639716     -0.5999217943886704
2.76E9                   -0.5323883120563075      -0.552916495054568
2.79E9                   -0.5799592705887535      -0.5014187631444638
2.82E9                   -0.6225910929623377      -0.44586495828146333
2.85E9                   -0.659940689665395       -0.38672420410356567
2.88E9                   -0.6917091322493166      -0.324494501366323
2.91E9                   -0.7176440865459931      -0.25969859968504827
2.94E9                   -0.7375418611831442      -0.19287966179414284
2.97E9                   -0.7512490531318716      -0.12459675635495199
3.0E9                    -0.7586637754786096      -0.05542021689251173
3.03E9                   -0.7597364561172282      0.014073094017561334
3.06E9                   -0.7544701998511519      0.08330457521528134
3.09E9                   -0.7429207102537924      0.15169869123817814
3.12E9                   -0.7251957716386311      0.21868774938341784
3.15E9                   -0.701454295471212       0.2837166086903758
3.18E9                   -0.6719049395132395      0.3462472805946376
3.21E9                   -0.6368043118116278      0.40576338212299323
3.24E9                   -0.596454775307688       0.46177440386583
3.27E9                   -0.551201872234869       0.513819756861863
3.3E9                    -0.5014313907167786      0.5614725644688264
3.33E9                   -0.4475660988768068      0.6043431677100564
3.36E9                   -0.3900621745109244      0.6420823150505215
3.39E9                   -0.32940536083427363     0.6743840103120059
3.42E9                   -0.2661068810568516      0.7009879953324168
3.45E9                   -0.20069914656044985     0.7216818470802233
3.48E9                   -0.1337312951933974      0.7363026722379642
3.51E9                   -0.06576459760360934     0.7447383857691063
3.54E9                   0.0026322293296512814    0.7469285636205214
3.57E9                   0.07088776221720856      0.7428648635094262
3.6E9                    0.13843262402560583      0.7325910115835791
3.63E9                   0.2047042102110769       0.7162023565763294
3.66E9                   0.2691513488323986       0.6938449968091134
3.69E9                   0.3312388563329249       0.6657144889641703
3.72E9                   0.39045195194342847      0.6320541508956846
3.75E9                   0.4463004952016572       0.5931529738549065
3.78E9                   0.49832301276041663      0.5493431624127391
3.81E9                   0.5460904825864733       0.5009973230043436
3.84E9                   0.5892098455129672       0.44852532462669514
3.87E9                   0.6273272163405181       0.3923708575601206
3.9E9                    0.6601307688736355       0.3330077183438038
3.93E9                   0.6873532718412204       0.27093585133272907
3.96E9                   0.7087742552613044       0.20667717927839277
3.99E9                   0.7242217898554174       0.14077125706782476
4.02E9                   0.7335738652198028       0.07377078439955816
4.05E9                   0.7367593558893859       0.006237014277298828
4.08E9                   0.7337585679144966       -0.06126490490181751
4.11E9                   0.724603362152513        -0.1281706155713732
4.14E9                   0.7093768539858876       -0.19392122741103576
4.17E9                   0.6882126925622253       -0.2579679462604333
4.2E9                    0.6612939258455388       -0.3197766184912127
4.23E9                   0.6288514607624717       -0.37883215466766784
4.26E9                   0.5911621305633447       -0.43464279731752475
4.29E9                   0.5485463842905468       -0.48674419865172497
4.32E9                   0.501365615956493        -0.5347032752824961
4.35E9                   0.4500191538530066       -0.5781218082265068
4.38E9                   0.3949409332436222       -0.6166397580378865
4.41E9                   0.33659587851043277      -0.6499382667677991
4.44E9                   0.2754760236442385       -0.6777423206291827
4.47E9                   0.21209640262137042      -0.69982304984698
4.5E9                    0.14699074357065386      -0.715999645184088
4.53E9                   0.08070700272142695      -0.726140873958999
4.56E9                   0.013802775729469908     -0.7301661820078731
4.59E9                   -0.05315937494037631     -0.7280463718467262
4.62E9                   -0.11961663729423525     -0.7198038511127329
4.65E9                   -0.1850106723801188      -0.7055124490890329
4.68E9                   -0.2487923031094182      -0.685296802602728
4.71E9                   -0.3104261307082132      -0.6593313158304454
4.74E9                   -0.3693950408090281      -0.6278387015867564
4.77E9                   -0.4252045617398805      -0.5910881146605503
4.8E9                    -0.4773870381362508      -0.5493928908765748
4.83E9                   -0.5255055838230387      -0.5031079088390825
4.86E9                   -0.5691577789227928      -0.4526265948755437
4.89E9                   -0.6079790778036904      -0.3983775953039637
4.92E9                   -0.6416458965744936      -0.3408211438076739
4.95E9                   -0.669878351605079       -0.2804451550981659
4.98E9                   -0.6924426238047152      -0.21776107917552606
5.01E9                   -0.7091529271552498      -0.1532995530835432
5.04E9                   -0.7198730640870097      -0.08760588916874254
5.07E9                   -0.7245175546472528      -0.021235440270744903
5.1E9                    -0.7230523308365501      0.04525111702419938
5.13E9                   -0.7154949917621573      0.11129253989539889
5.16E9                   -0.7019146191704682      0.1763317769332482
5.19E9                   -0.6824311563292454      0.2398206861876581
5.22E9                   -0.6572143561716687      0.301224674711366
5.25E9                   -0.626482307302862       0.36002722141706694
5.28E9                   -0.5904995492748516      0.41573424538992215
5.31E9                   -0.5495747917192424      0.4678782821580453
5.34E9                   -0.5040582556216059      0.5160224310355208
5.37E9                   -0.45433865910071164     0.5597640378597039
5.4E9                    -0.40083987420842243     0.5987380795264029
5.43E9                   -0.3440172851462028      0.6326202196375907
5.46E9                   -0.2843538817010285      0.6611295081571149
5.49E9                   -0.22235612439564748     0.6840307020980458
5.52E9                   -0.15854961988380972     0.7011361886895755
5.55E9                   -0.09347464629926545     0.7123074971037084
5.58E9                   -0.027681568720382188    0.7174563894128826
5.61E9                   0.03827381561657468      0.7165455258085731
5.64E9                   0.10383496380410727      0.7095887028222565
5.67E9                   0.16844926846923036      0.6966506661404557
5.7E9                    0.23157269789135404      0.6778465015613464
5.73E9                   0.2926743598689123       0.6533406090582465
5.76E9                   0.3512409536428564       0.6233452665451454
5.79E9                   0.40678107328707613      0.5881187924221478
5.82E9                   0.4588293250503096       0.5479633197202364
5.85E9                   0.5069502212701459       0.5032221993821814
5.88E9                   0.5507418149699558       0.4542770553357066
5.91E9                   0.5898390421926468       0.40154451868714036
5.94E9                   0.6239167429970724       0.3454726722164681
5.97E9                   0.6526923364944374       0.2865372390191822
6.0E9                    0.6759281297486869       0.22523755094149195
