% Model:              three_layers reality at 0.1mm.mph
% Version:            COMSOL 5.6.0.280
% Date:               Mar 8 2022, 09:37
% Table:              表格 1 - 全局计算 1
% freq (Hz)              real(emw.S11) (1)        imag(emw.S11) (1)
300000000                0.44333650836470506      -0.8278161175428785
330000000                0.35344190686577587      -0.8677501452894941
360000000                0.26017823440016236      -0.8981123885541713
390000000                0.1645294947354005       -0.9186234150006002
420000000                0.06750871860620222      -0.9291046727257405
450000000                -0.029854169049531268    -0.9294819739631226
480000000                -0.12652439627122777     -0.9197873332189346
510000000                -0.22147425305267757     -0.9001593029720424
540000000                -0.31369478272894985     -0.8708419050850209
570000000                -0.4022071592429877      -0.8321822355395562
600000000                -0.4860736463713076      -0.7846268132605082
630000000                -0.5644080313407356      -0.7287167444328594
660000000                -0.6363854263006593      -0.6650817787415605
690000000                -0.7012513349040996      -0.5944333411040996
720000000                -0.7583298874966116      -0.5175566306179693
750000000                -0.8070311566399856      -0.43530188675965165
780000000                -0.8468574742724497      -0.34857493099686326
810000000                -0.877408683424913       -0.2583270989014634
840000000                -0.8983862693686524      -0.16554468412874856
870000000                -0.9095963284854737      -0.07123802024993803
900000000                -0.9109513468379368      0.0235696698358303
930000000                -0.9024707748200855      0.11785352612654283
960000000                -0.8842803985408658      0.21059827355479688
990000000                -0.8566105230352461      0.30080928415499447
1020000000               -0.8197929964786692      0.3875233524657841
1050000000               -0.7742571181415467      0.46981906197461004
1080000000               -0.7205244857561633      0.5468266266757457
1110000000               -0.6592028500311083      0.6177370992341037
1140000000               -0.5909790549411731      0.681810846313732
1170000000               -0.5166111524180609      0.7383852012726507
1200000000               -0.4369197884939441      0.7868812155608378
1230000000               -0.3527789650890709      0.8268094417703105
1260000000               -0.2651062875030789      0.857774693457132
1290000000               -0.17485281183057141     0.8794797396060621
1320000000               -0.08299260916205818     0.8917279045178731
1350000000               0.009487834843688425     0.8944245566728585
1380000000               0.10160026718436654      0.8875774831301145
1410000000               0.19236524461470186      0.8712961583518419
1440000000               0.2808225269160857       0.8457899285210936
1470000000               0.3660411764747338       0.8113651438992788
1500000000               0.4471292595143716       0.7684212826036808
1530000000               0.5232430503852836       0.7174461193132616
1560000000               0.5935956475407324       0.6590100015482514
1590000000               0.6574649175069223       0.5937593045497717
1620000000               0.7142006916585981       0.5224091431639807
1650000000               0.7632311498392103       0.44573542541743366
1680000000               0.8040683342131558       0.3645663379392341
1710000000               0.8363127467790804       0.27977335759938077
1740000000               0.8596569940634894       0.19226188715903098
1770000000               0.8738884529745686       0.10296161486304943
1800000000               0.8788909423168662       0.01281669910331259
1830000000               0.8746453950637296       -0.0772241205951622
1860000000               0.8612295371956847       -0.1662173862684801
1890000000               0.8388165894641191       -0.2532346602091949
1920000000               0.8076730189711889       -0.33737204592918657
1950000000               0.7681553775018707       -0.4177594036058887
1980000000               0.7207062729421427       -0.4935691799865767
2010000000               0.6658495278977032       -0.5640247837983182
2040000000               0.6041845842847288       -0.6284084520109787
2070000000               0.5363802117721896       -0.686068570124828
2100000000               0.4631675667260551       -0.7364264304487316
2130000000               0.38533262083611924      -0.7789824309936156
2.16E9                   0.3037079273806043       -0.8133217235729493
2.19E9                   0.21916361634772594      -0.8391192890517631
2.22E9                   0.1325974226402094       -0.8561443135952191
2.25E9                   0.044923515048025386     -0.8642635204374894
2.28E9                   -0.04293996703776309     -0.8634427806597964
2.31E9                   -0.13008428048296708     -0.8537460257156048
2.34E9                   -0.21562309805765534     -0.8353305800619698
2.37E9                   -0.29870307965294485     -0.8084389736738807
2.4E9                    -0.3785099759297678      -0.7733890490065267
2.43E9                   -0.45426999961427        -0.730565633550087
2.46E9                   -0.5252489063606881      -0.680416559966764
2.49E9                   -0.5907526749120454      -0.6234531163325536
2.52E9                   -0.650132394801767       -0.5602521447185242
2.55E9                   -0.7027930993141273      -0.4914563043765565
2.58E9                   -0.7482042425009792      -0.41777057195493744
2.61E9                   -0.785909394815665       -0.3399551108137784
2.64E9                   -0.815533792266024       -0.25881577216868235
2.67E9                   -0.8367894698089533      -0.1751935547926849
2.7E9                    -0.8494783027540816      -0.0899539071954602
2.73E9                   -0.85349341738123        -0.003976296560596607
2.76E9                   -0.8488193458706974      0.08185582006351323
2.79E9                   -0.8355311659273096      0.16666461314460934
2.82E9                   -0.8137927585034874      0.24958710694898076
2.85E9                   -0.7838542526349266      0.3297840226211704
2.88E9                   -0.7460486958331031      0.4064482230038648
2.91E9                   -0.7007879790342997      0.4788127237201086
2.94E9                   -0.6485580470511971      0.5461582211490029
2.97E9                   -0.5899134326846188      0.6078200804562097
3.0E9                    -0.5254711618097053      0.6631947245783384
3.03E9                   -0.45590408605276994     0.7117453667488084
3.06E9                   -0.38193370820386985     0.7530070338598134
3.09E9                   -0.3043225728511068      0.7865908347792583
3.12E9                   -0.22386630029087842     0.8121874363224499
3.15E9                   -0.1413853454930484      0.8295697191025152
3.18E9                   -0.057716565221464046    0.8385945954753717
3.21E9                   0.02629532436986395      0.8392039811909013
3.24E9                   0.10980632009526535      0.8314249204496031
3.27E9                   0.19198165838339065      0.8153688699209054
3.3E9                    0.27200422424257925      0.7912301505853334
3.33E9                   0.3490827726899996       0.7592835772796066
3.36E9                   0.4224598921545871       0.7198812755110859
3.39E9                   0.49141963474977185      0.6734486952178793
3.42E9                   0.5552947300491606       0.6204798338583466
3.45E9                   0.6134732877997714       0.5615316889195008
3.48E9                   0.6654048833316075       0.49721797480739155
3.51E9                   0.7106059108459715       0.42820216220252566
3.54E9                   0.7486640888501945       0.35518992875536787
3.57E9                   0.7792420134197997       0.27892114487514164
3.6E9                    0.8020796811255707       0.20016155131966706
3.63E9                   0.8169959432954568       0.11969430884568898
3.66E9                   0.8238889012784036       0.038311608039123035
3.69E9                   0.8227353002521337       -0.04319348191182215
3.72E9                   0.8135890199269564       -0.12403477008172303
3.75E9                   0.7965787919443742       -0.20344018237153016
3.78E9                   0.77190529813718         -0.28065839403195014
3.81E9                   0.7398378233226478       -0.3549648119794186
3.84E9                   0.7007106465570925       -0.4256669191236231
3.87E9                   0.6549193430210849       -0.49210906283883243
3.9E9                    0.6029171203655026       -0.5536768407261902
3.93E9                   0.5452112245584536       -0.609801283713076
3.96E9                   0.4823593371390251       -0.6599630325212285
3.99E9                   0.4149657826534496       -0.7036966362409405
4.02E9                   0.34367730928128837      -0.7405949844814864
4.05E9                   0.2691782200033693       -0.7703137521720054
4.08E9                   0.19218471216299415      -0.7925756305496384
4.11E9                   0.11343840312231368      -0.80717406926661
4.14E9                   0.03369914147519566      -0.8139762711737802
4.17E9                   -0.046262704975031       -0.8129252499515509
4.2E9                    -0.12567424978819322     -0.8040408556897725
4.23E9                   -0.2037681477545955      -0.7874197666068554
4.26E9                   -0.2797905276298764      -0.7632345144798528
4.29E9                   -0.3530086713933985      -0.7317316455524572
4.32E9                   -0.422718370655533       -0.6932291182128578
4.35E9                   -0.48825092882850196     -0.6481130141947261
4.38E9                   -0.5489797901828067      -0.5968336072986171
4.41E9                   -0.6043267671030117      -0.5399008078297828
4.44E9                   -0.6537678148431403      -0.47787899125856914
4.47E9                   -0.6968382803617152      -0.4113812277104265
4.5E9                    -0.7331375373275071      -0.3410629503748007
4.53E9                   -0.7623329174619916      -0.2676151289915313
4.56E9                   -0.7841628595713218      -0.19175704247439684
4.59E9                   -0.7984392202202639      -0.11422876736638217
4.62E9                   -0.805048721231792       -0.03578351152561404
4.65E9                   -0.8039535444511405      0.04282007817177346
4.68E9                   -0.7951911167638253      0.12082552157806539
4.71E9                   -0.778873149428573       0.19748594179054382
4.74E9                   -0.7551839978516623      0.2720712853365033
4.77E9                   -0.7243783892703126      0.34387530775548353
4.8E9                    -0.686778533736704       0.4122223155988183
4.83E9                   -0.6427706032760485      0.4764736401539881
4.86E9                   -0.592800551019132       0.5360337829261345
4.89E9                   -0.5373692556054691      0.5903561325195803
4.92E9                   -0.47702701447731477     0.6389481238758057
4.95E9                   -0.4123674620431061      0.6813757057289676
4.98E9                   -0.3440210407218632      0.7172670042625012
5.01E9                   -0.27264819145970076     0.7463151166854961
5.04E9                   -0.19893244564208176     0.7682800294232519
5.07E9                   -0.12357358666063921     0.7829897200822702
5.1E9                    -0.04728100559618423     0.7903405558637707
5.13E9                   0.02923269169975509      0.7902971274854018
5.16E9                   0.10525784261928878      0.7828916441561526
5.19E9                   0.18009372205979268      0.768222960310985
5.22E9                   0.25305445430725476      0.7464552257996386
5.25E9                   0.32347487964015864      0.7178160819634063
5.28E9                   0.3907163308854269       0.6825943025473027
5.31E9                   0.4541721954520302       0.6411368171581704
5.34E9                   0.5132731034372098       0.5938451396142037
5.37E9                   0.5674916117533181       0.5411713120119099
5.4E9                    0.6163463332417809       0.48361352432605637
5.43E9                   0.6594055496872073       0.42171155837922414
5.46E9                   0.6962904094562049       0.35604214392302724
5.49E9                   0.7266778230668134       0.2872142333144652
5.52E9                   0.7503031356796783       0.2158641314332832
5.55E9                   0.7669625916383659       0.14265037977815934
5.58E9                   0.7765155342262017       0.06824829444890036
5.61E9                   0.7788862215984995       -0.006655906671813004
5.64E9                   0.7740651001898833       -0.08137138993919142
5.67E9                   0.7621093697556888       -0.1552093294923021
5.7E9                    0.7431427072343834       -0.22748971394810985
5.73E9                   0.7173540905453454       -0.29754812506594513
5.76E9                   0.6849957635517104       -0.364742267178416
5.79E9                   0.6463804762125765       -0.4284580763753688
5.82E9                   0.6018781793889478       -0.4881153348392482
5.85E9                   0.5519123302587643       -0.5431728162860341
5.88E9                   0.49695588669917506      -0.5931330462330661
5.91E9                   0.437526981151596        -0.637546753241172
5.94E9                   0.374184209849185        -0.6760170293155975
5.97E9                   0.3075214702059233       -0.7082031455987412
6.0E9                    0.23816231718033656      -0.7338239163151103
