% Model:              three_layers reality at 0.1mm.mph
% Version:            COMSOL 5.6.0.280
% Date:               Mar 8 2022, 09:33
% Table:              表格 1 - 全局计算 1
% freq (Hz)              real(emw.S11) (1)        imag(emw.S11) (1)
300000000                0.4372825647739491       -0.8243125683523623
330000000                0.34768493407193546      -0.8632989419475123
360000000                0.25487822984679503      -0.8927620300811319
390000000                0.1598313906943238       -0.9124461642546386
420000000                0.06354059426173801      -0.9221926644197831
450000000                -0.03298239827044167     -0.921943678356472
480000000                -0.12872191196374985     -0.9117442834162353
510000000                -0.22266994732981998     -0.8917430234186686
540000000                -0.3138375845551763      -0.8621910019672978
570000000                -0.4012660940231523      -0.8234396271443354
600000000                -0.48403764186237813     -0.7759370912523388
630000000                -0.5612854809187756      -0.7202236661078579
660000000                -0.6322035201362235      -0.6569258966233359
690000000                -0.696055170766019       -0.5867497804022618
720000000                -0.7521813747104641      -0.5104730274791914
750000000                -0.8000077287282906      -0.42893650148606455
780000000                -0.8390506283437674      -0.34303495020956215
810000000                -0.868922366207663       -0.25370714013998436
840000000                -0.8893351319438692      -0.16192551472781794
870000000                -0.9001038733175966      -0.06868550068612823
900000000                -0.9011479921267966      0.025005410729573758
930000000                -0.8924918620473786      0.11813867865636676
960000000                -0.8742641697179739      0.2097156952877561
990000000                -0.8466960943078731      0.29875860917115427
1020000000               -0.8101183544656902      0.38432086531669846
1050000000               -0.764957164793999       0.46549734280559
1080000000               -0.7117291565202548      0.5414339766882216
1110000000               -0.6510353286807702      0.61133675855992
1140000000               -0.5835541068773631      0.6744800185791568
1170000000               -0.5100335962088475      0.7302139015295444
1200000000               -0.43128312320721723     0.7779709602509439
1230000000               -0.34816416870444766     0.8172718009179276
1260000000               -0.2615807989415351      0.8477297268303423
1290000000               -0.1724697066498445      0.8690543394821528
1320000000               -0.08178997618780155     0.8810540684492563
1350000000               0.009487311598884851     0.8836376140654129
1380000000               0.10038951940394601      0.8768142993985943
1410000000               0.18995282442962705      0.8606933402541227
1440000000               0.27723240896500484      0.8354820536351849
1470000000               0.3613123633730302       0.8014830364235936
1500000000               0.4413151989016457       0.7590903565657298
1530000000               0.5164108741705528       0.7087848089075056
1560000000               0.5858252456395207       0.6511282968695902
1590000000               0.6488478601587744       0.5867574093078953
1620000000               0.7048390160585001       0.5163762690553646
1650000000               0.7532360278898814       0.44074873599758757
1680000000               0.7935586393453651       0.3606900527795519
1710000000               0.8254135385808858       0.2770580254282152
1740000000               0.8484979399687106       0.1907438346914713
1770000000               0.8626022066642417       0.10266257582522276
1800000000               0.8676114985333634       0.013743626142825361
1830000000               0.8635064405503666       -0.07507906063465274
1860000000               0.8503628171648189       -0.1628766347576064
1890000000               0.8283503087028606       -0.24873490975985743
1920000000               0.7977302962461774       -0.331763708507479
1950000000               0.7588527715853935       -0.41110590931383906
1980000000               0.7121523983690339       -0.4859461135206967
2010000000               0.658143778700821        -0.5555188665160059
2040000000               0.5974159847751377       -0.6191163786975076
2070000000               0.5306264150100345       -0.6760957113014885
2100000000               0.4584940240463404       -0.7258854139482697
2130000000               0.38179194947310297      -0.7679916220322734
2.16E9                   0.30133950690870465      -0.8020036324275234
2.19E9                   0.2179934452005343       -0.827598952166529
2.22E9                   0.132638257981281        -0.8445477180673049
2.25E9                   0.04617529244889056      -0.8527161703966369
2.28E9                   -0.040489492852913325    -0.8520685228841917
2.31E9                   -0.12645881626744196     -0.8426662330018821
2.34E9                   -0.21085723849569504     -0.824663700380574
2.37E9                   -0.29284211554453377     -0.7983002855674728
2.4E9                    -0.37161018555300135     -0.7638902891133118
2.43E9                   -0.44639925505022965     -0.7218141220643375
2.46E9                   -0.516487175642237       -0.6725136416450938
2.49E9                   -0.5811919672501785      -0.6164920729668646
2.52E9                   -0.6398759206107836      -0.55431598834057
2.55E9                   -0.6919537281621289      -0.4866158708364727
2.58E9                   -0.7369025358815078      -0.41408315237679516
2.61E9                   -0.7742715045388291      -0.33746364699119735
2.64E9                   -0.8036894204189926      -0.2575485146157291
2.67E9                   -0.8248699774495452      -0.17516405150668404
2.7E9                    -0.8376149814549682      -0.09116121582490516
2.73E9                   -0.8418159050793279      -0.006405352170526369
2.76E9                   -0.8374541624784698      0.0782337170076637
2.79E9                   -0.8246003501497463      0.1618912036991347
2.82E9                   -0.8034125962998915      0.243716480775782
2.85E9                   -0.7741340956158593      0.3228818273373186
2.88E9                   -0.7370898733520168      0.3985907782854761
2.91E9                   -0.6926828109481602      0.4700860446170089
2.94E9                   -0.6413889654774583      0.5366569576149115
2.97E9                   -0.5837522211979834      0.5976463824258372
3.0E9                    -0.5203783197005186      0.6524570439894313
3.03E9                   -0.4519283239275348      0.7005572094714967
3.06E9                   -0.3791115795701335      0.7414856755715875
3.09E9                   -0.30267824449138436     0.7748560155131057
3.12E9                   -0.2234114625057047      0.8003600486594972
3.15E9                   -0.14211926152554302     0.817770505011254
3.18E9                   -0.05962625773966206     0.8269428665727585
3.21E9                   0.02323475339114225      0.8278163770255142
3.24E9                   0.10563124104660702      0.8204142191639193
3.27E9                   0.18673934371960677      0.8048428655430482
3.3E9                    0.2657521643882019       0.7812906110709172
3.33E9                   0.34188788848098         0.7500252971387961
3.36E9                   0.4143976566356525       0.7113912361859059
3.39E9                   0.4825731201215236       0.6658053449717847
3.42E9                   0.5457535985132234       0.61375249657239
3.45E9                   0.6033327478298678       0.555780107606197
3.48E9                   0.6547646348379083       0.4924919907819225
3.51E9                   0.69956910313615         0.4245415250269856
3.54E9                   0.7373363138569428       0.3526242256307648
3.57E9                   0.7677303528322913       0.2774698320541018
3.6E9                    0.7904918199931196       0.19983406537646964
3.63E9                   0.8054393550120065       0.12049023294729627
3.66E9                   0.8124701004073842       0.04022086866192309
3.69E9                   0.811559151630118        -0.04019040939790938
3.72E9                   0.8027580856783871       -0.11996666308834268
3.75E9                   0.786192692898824        -0.19834488862616273
3.78E9                   0.7620600630669984       -0.27458266442575113
3.81E9                   0.7306251990717989       -0.3479641371685724
3.84E9                   0.6922173458136212       -0.41780534620892906
3.87E9                   0.6472262156951601       -0.48345895662521027
3.9E9                    0.5960982498338353       -0.5443185457254374
3.93E9                   0.5393329698611957       -0.599822641831694
3.96E9                   0.4774793625658852       -0.6494587198665625
3.99E9                   0.41113213154067874      -0.6927673005111052
4.02E9                   0.3409275845005743       -0.7293461884719863
4.05E9                   0.26753892764152154      -0.7588547531022491
4.08E9                   0.19167080890018157      -0.7810180433396717
4.11E9                   0.11405306636787618      -0.7956304706545176
4.14E9                   0.035433760126164594     -0.8025587999741344
4.17E9                   -0.043428337748066786    -0.8017442491143033
4.2E9                    -0.12177156932097191     -0.793203588052505
4.23E9                   -0.19883930561141555     -0.7770292225821839
4.26E9                   -0.27388775980293306     -0.7533883195387441
4.29E9                   -0.346193566346389       -0.7225210697856795
4.32E9                   -0.4150610506907053      -0.6847381891967745
4.35E9                   -0.47982915485061145     -0.6404177362330862
4.38E9                   -0.5398779995360959      -0.5900012927622177
4.41E9                   -0.5946350563046288      -0.5339895278398985
4.44E9                   -0.6435808822453734      -0.4729371524212882
4.47E9                   -0.6862543466942653      -0.4074472788807474
4.5E9                    -0.7222572635964465      -0.3381652191538498
4.53E9                   -0.7512583392132117      -0.26577178286211556
4.56E9                   -0.7729963541685491      -0.19097616511713356
4.59E9                   -0.7872825198864727      -0.11450853755092485
4.62E9                   -0.7940019798590499      -0.037112470794230294
4.65E9                   -0.7931144615909279      0.0404626819595348
4.68E9                   -0.7846541188235424      0.11746932492401346
4.71E9                   -0.7687286268985144      0.19316899667325454
4.74E9                   -0.7455175987398635      0.2668395334565701
4.77E9                   -0.7152703722881995      0.33778199889271193
4.8E9                    -0.6783031886926847      0.4053273723069551
4.83E9                   -0.6349957486843293      0.4688429750036048
4.86E9                   -0.5857871185632513      0.527738580027196
4.89E9                   -0.531170967313608       0.5814721101666961
4.92E9                   -0.4716901519866099      0.629554797896142
4.95E9                   -0.40793071974188333     0.6715556723606243
4.98E9                   -0.3405154477762567      0.7071052569721225
5.01E9                   -0.2700970835053728      0.7358984039481448
5.04E9                   -0.1973514664396877      0.7576962516292268
5.07E9                   -0.12297070386520481     0.7723273552940543
5.1E9                    -0.04765653247605642     0.7796880983478743
5.13E9                   0.027886066812720146     0.7797425217145065
5.16E9                   0.10295500806979892      0.7725217012725922
5.19E9                   0.17685705921281888      0.7581227529048962
5.22E9                   0.24891370257178577      0.7367074672637632
5.25E9                   0.31846694108718837      0.7085005043887169
5.28E9                   0.3848850151748396       0.6737870486424811
5.31E9                   0.4475679138896254       0.6329098564137179
5.34E9                   0.5059525231142746       0.5862657097490296
5.37E9                   0.5595172758720913       0.5343013785923613
5.4E9                    0.6077862442059129       0.4775092487586749
5.43E9                   0.6503327020474722       0.41642276886345697
5.46E9                   0.6867822545833949       0.3516118139372205
5.49E9                   0.7168156489433412       0.28367798401994365
5.52E9                   0.740171353086544        0.21324978416622722
5.55E9                   0.756647930224316        0.14097758950068648
5.58E9                   0.7661061653350512       0.06752829342946173
5.61E9                   0.7684708362421735       -0.006420433413411243
5.64E9                   0.7637319775587909       -0.08018628826292504
5.67E9                   0.7519454722855738       -0.1530888242092043
5.7E9                    0.7332328318489889       -0.22445614001158587
5.73E9                   0.7077800935063998       -0.2936315689169701
5.76E9                   0.6758358618469263       -0.35998014590269334
5.79E9                   0.6377086166944168       -0.4228946749109095
5.82E9                   0.5937634623502946       -0.48180130936191534
5.85E9                   0.5444184780897693       -0.536164660694118
5.88E9                   0.49014075792652023      -0.5854925133407453
5.91E9                   0.4314421402222284       -0.6293402247565311
5.94E9                   0.3688745688731954       -0.667314836769048
5.97E9                   0.30302501851692054      -0.6990788541740897
6.0E9                    0.2345099490396356       -0.7243535912398347
