% Model:              three_layers reality at 0.1mm.mph
% Version:            COMSOL 5.6.0.280
% Date:               Apr 19 2022, 16:43
% Table:              表格 1 - 全局计算 1
% freq (Hz)              real(emw.S11) (1)        imag(emw.S11) (1)
300000000                0.5693124072375026       -0.7789786128028291
330000000                0.49430653349456044      -0.8273834251259639
360000000                0.4153519942296372       -0.8686333711116222
390000000                0.33310685568401976      -0.9024188166128169
420000000                0.24825602985564502      -0.9284860037386364
450000000                0.16150648056592998      -0.9466407529876781
480000000                0.07358185570752306      -0.9567514132453175
510000000                -0.014783291722430647    -0.9587510779063635
540000000                -0.10284957182994266     -0.9526390827868565
570000000                -0.18987901485641015     -0.9384817979070832
600000000                -0.27514143136769514     -0.9164127233231846
630000000                -0.357920796715014       -0.8866318990054405
660000000                -0.4375215859217068      -0.8494046401434133
690000000                -0.5132749875682804      -0.8050596125114947
720000000                -0.5845449275379927      -0.7539862666483502
750000000                -0.6507338352936024      -0.6966316550008305
780000000                -0.7112880877957747      -0.6334966619087326
810000000                -0.7657030690866998      -0.5651316826519664
840000000                -0.8135277872668925      -0.4921317940337564
870000000                -0.8543689949623814      -0.41513146544102225
900000000                -0.8878947650404992      -0.33479886499414563
930000000                -0.9138374793502845      -0.2518298209641718
960000000                -0.9319961952705264      -0.1669415034950343
990000000                -0.9422383626827919      -0.08086589506293479
1020000000               -0.9445008719094876      0.005656878469523993
1050000000               -0.9387904219117692      0.09188528284701958
1080000000               -0.9251832067027803      0.1770831024462816
1110000000               -0.903823926760858       0.26052608547389877
1140000000               -0.874924140806612       0.34150843568501954
1170000000               -0.8387599816874904      0.4193490810406312
1200000000               -0.7956692678151319      0.4933976541701972
1230000000               -0.7460480488377507      0.5630401238609357
1260000000               -0.6903466305034784      0.6277040226490442
1290000000               -0.6290651292948819      0.6868632217096762
1320000000               -0.5627486116999241      0.7400422113706528
1350000000               -0.4919818767381543      0.7868198525203476
1380000000               -0.4173839426201051      0.8268325718977242
1410000000               -0.339602299888802       0.8597769816848899
1440000000               -0.25930699386628986     0.8854119112532131
1470000000               -0.17718459861438873     0.9035598461738324
1500000000               -0.0939321432271429      0.914107776430757
1530000000               -0.01025104922116249     0.9170074621262696
1560000000               0.07315886527171465      0.9122751308662189
1590000000               0.15560526197826638      0.8999906261569148
1620000000               0.23640899106663138      0.8802960307420064
1650000000               0.3149095873314634       0.8533937926747406
1680000000               0.39047051392758125      0.8195443850959285
1710000000               0.4624841178920015       0.7790635332667618
1740000000               0.5303762662646516       0.7323190442725042
1770000000               0.5936106359088597       0.6797272761592291
1800000000               0.6516926342817219       0.6217492841085025
1830000000               0.704172932489616        0.5588866815414739
1860000000               0.7506505955244717       0.49167725413615665
1890000000               0.7907757982159386       0.4206903642196827
1920000000               0.824252118333514        0.3465221826655038
1950000000               0.8508384013400065       0.269790784426978
1980000000               0.870350193734145        0.19113114312603105
2010000000               0.8826607442674977       0.11119005916794247
2040000000               0.8877015744470879       0.030621054820669735
2070000000               0.885462621619396        -0.04992073108643378
2100000000               0.875991959751826        -0.12978361728657947
2130000000               0.8593951047215932       -0.20832439215946705
2.16E9                   0.8358339126031109       -0.28491323397737806
2.19E9                   0.8055250811006606       -0.35893851036185165
2.22E9                   0.7687382659201554       -0.4298114291578681
2.25E9                   0.7257938254209635       -0.4969705143214059
2.28E9                   0.6770602082249234       -0.5598858821008149
2.31E9                   0.6229509991617825       -0.6180632950759326
2.34E9                   0.5639216385519122       -0.6710479741723637
2.37E9                   0.5004658274242323       -0.7184281512436483
2.4E9                    0.4331116261487566       -0.759838345740075
2.43E9                   0.36241724568079053      -0.7949623457255998
2.46E9                   0.28896652117141247      -0.8235358617360783
2.49E9                   0.21336405344626572      -0.8453487972425086
2.52E9                   0.13623001824833292      -0.8602470418262755
2.55E9                   0.05819469297617044      -0.8681336561915945
2.58E9                   -0.020107157606963       -0.8689693162326269
2.61E9                   -0.0980417924817214      -0.8627719612054602
2.64E9                   -0.17498162373994558     -0.8496157590733578
2.67E9                   -0.25030980111695483     -0.8296296831738506
2.7E9                    -0.3234243362109238      -0.8029960427462032
2.73E9                   -0.3937420718400511      -0.7699491430849124
2.76E9                   -0.46070282191203815     -0.730773967502181
2.79E9                   -0.5237738142510104      -0.6858045803924062
2.82E9                   -0.582454324261223       -0.635421963341178
2.85E9                   -0.6362802519885865      -0.5800511524129014
2.88E9                   -0.6848284028231582      -0.5201577084416289
2.91E9                   -0.7277203159986531      -0.4562436417345799
2.94E9                   -0.7646255707306401      -0.3888429275420282
2.97E9                   -0.795264553514591       -0.3185167251963796
3.0E9                    -0.8194106921586173      -0.24584838402163395
3.03E9                   -0.8368921659702111      -0.17143829739123656
3.06E9                   -0.8475930987492923      -0.09589865486619549
3.09E9                   -0.8514542383677739      -0.019848138165002555
3.12E9                   -0.8484731260124937      0.056093393544922404
3.15E9                   -0.8387037599274069      0.1313101827520999
3.18E9                   -0.8222557619513033      0.20519577005456782
3.21E9                   -0.7992930596669378      0.27715806102906954
3.24E9                   -0.7700321018551869      0.3466242177480779
3.27E9                   -0.7347396297928779      0.41304533119555836
3.3E9                    -0.6937300313732899      0.47590083377809256
3.33E9                   -0.6473623090238032      0.5347026144809435
3.36E9                   -0.5960366957188546      0.5889988032171354
3.39E9                   -0.5401909563034771      0.638377194890207
3.42E9                   -0.4802964136006102      0.6824682881131461
3.45E9                   -0.4168537405753696      0.7209479179541128
3.48E9                   -0.3503885612876376      0.7535394665265869
3.51E9                   -0.2814469040922964      0.780015639990695
3.54E9                   -0.21059055106089622     0.8001998051030015
3.57E9                   -0.13839232739041804     0.813966883219576
3.6E9                    -0.06543137386982566     0.8212438043519802
3.63E9                   0.007711555901058809     0.8220095284704204
3.66E9                   0.08045873395961217      0.8162946456104196
3.69E9                   0.15223999541605304      0.804180570152396
3.72E9                   0.2224971415835503       0.7857983476191377
3.75E9                   0.2906881792522786       0.7613270942334751
3.78E9                   0.35629136994166777      0.7309920902035547
3.81E9                   0.4188090655124695       0.6950625475347236
3.84E9                   0.4777713078036392       0.653849072695035
3.87E9                   0.5327391699484529       0.6077008444674221
3.9E9                    0.5833078161284423       0.5570025286123857
3.93E9                   0.6291092555119673       0.5021709541845414
3.96E9                   0.6698147664080083       0.4436515814437919
3.99E9                   0.7051369693128606       0.38191479783829524
4.02E9                   0.7348315337210611       0.3174520849152303
4.05E9                   0.7586985133285581       0.2507721032435445
4.08E9                   0.7765833163276679       0.18239674216033563
4.11E9                   0.7883773290991916       0.11285717499790236
4.14E9                   0.7940182190450114       0.04268994930846966
4.17E9                   0.7934899429888426       -0.02756687168217431
4.2E9                    0.7868224812467073       -0.09737751075363921
4.23E9                   0.774091307281525        -0.16621222014444498
4.26E9                   0.7554165937297999       -0.23355096246966026
4.29E9                   0.7309621517348625       -0.29888701759633085
4.32E9                   0.7009341028533481       -0.36173049720210937
4.35E9                   0.665579288673008        -0.4216117463904643
4.38E9                   0.6251834283040143       -0.4780846144133685
4.41E9                   0.5800690346849472       -0.5307295817435626
4.44E9                   0.5305930969530016       -0.5791567342779435
4.47E9                   0.4771445304050641       -0.6230085745668321
4.5E9                    0.4201413915535298       -0.661962654335498
4.53E9                   0.36002785626092726      -0.6957340043024297
4.56E9                   0.29727096451538204      -0.7240773297095504
4.59E9                   0.23235714469563273      -0.746788935730234
4.62E9                   0.16578854111060207      -0.7637083471577193
4.65E9                   0.0980791783964385       -0.7747195916530969
4.68E9                   0.02975100370445585      -0.7797521240075662
4.71E9                   -0.03867014900657182     -0.7787813790135951
4.74E9                   -0.10665862886490025     -0.77182895061755
4.77E9                   -0.17369303292704164     -0.7589624032029971
4.8E9                    -0.2392602331592899      -0.740294725470467
4.83E9                   -0.30285933923964187     -0.7159834379353708
4.86E9                   -0.3640055748666905      -0.6862293624650248
4.89E9                   -0.42223404562544364     -0.6512750586674309
4.92E9                   -0.4771033735556238      -0.611402929681877
4.95E9                   -0.528199168892174       -0.5669330006180141
4.98E9                   -0.5751373050797669      -0.5182203767037163
5.01E9                   -0.617566960567334       -0.4656523943017157
5.04E9                   -0.6551733905784555      -0.4096454851428643
5.07E9                   -0.6876803940578908      -0.35064178140639735
5.1E9                    -0.7148524450528835      -0.2891054961036177
5.13E9                   -0.7364964638913641      -0.22551911898977078
5.16E9                   -0.7524632115144385      -0.16037947226775573
5.19E9                   -0.7626482996373254      -0.0941936713910676
5.22E9                   -0.7669928184431044      -0.027475033559587383
5.25E9                   -0.7654835898599457      0.039261029760799586
5.28E9                   -0.7581530561239428      0.10550110755987469
5.31E9                   -0.7450788101584305      0.17073784804195694
5.34E9                   -0.7263827688038352      0.23447395870362486
5.37E9                   -0.7022299861319079      0.29622612017445804
5.4E9                    -0.6728271051901411      0.35552877840490704
5.43E9                   -0.638420453239593       0.4119377728944362
5.46E9                   -0.5992937960067807      0.46503375564718596
5.49E9                   -0.5557657777647081      0.5144253575383442
5.52E9                   -0.5081870838701311      0.5597520649468932
5.55E9                   -0.45693736948586094     0.600686778604211
5.58E9                   -0.40242200207279766     0.6369380375082878
5.61E9                   -0.34506866534793085     0.6682519025828166
5.64E9                   -0.28532386801489135     0.6944135062125542
5.67E9                   -0.22364939127599417     0.7152482825720239
5.7E9                    -0.1605186963066686      0.7306228965321203
5.73E9                   -0.0964133006022145      0.7404458835027404
5.76E9                   -0.03181912632284547     0.7446679999060901
5.79E9                   0.03277717094026009      0.743282269865334
5.82E9                   0.09689186917599849      0.7363237067227701
5.85E9                   0.16004780091344736      0.7238686940345714
5.88E9                   0.22177787561047763      0.7060340283820304
5.91E9                   0.2816284535131775       0.682975647512147
5.94E9                   0.33916253518935896      0.6548870824771424
5.97E9                   0.3939627495544773       0.621997676493169
6.0E9                    0.4456341386700789       0.5845706073286483
