% Model:              three_layers reality at 0.1mm.mph
% Version:            COMSOL 5.6.0.280
% Date:               Apr 19 2022, 16:40
% Table:              表格 1 - 全局计算 1
% freq (Hz)              real(emw.S11) (1)        imag(emw.S11) (1)
300000000                0.5658712552405334       -0.7750538223994448
330000000                0.49139834807149224      -0.822788596340002
360000000                0.41308585778428725      -0.8634611347232757
390000000                0.3315727333346834       -0.8967737166545873
420000000                0.2475252023129585       -0.9224815027234383
450000000                0.1616319405767218       -0.9403966731873032
480000000                0.07459869546847689      -0.9503916550949576
510000000                -0.012857467959097946    -0.9524015206394097
540000000                -0.10001417705999512     -0.9464256129757764
570000000                -0.18614992410613615     -0.9325284378410594
600000000                -0.2705503205737618      -0.9108398480903827
630000000                -0.3525143621940002      -0.8815545418309555
660000000                -0.4313606355976954      -0.8449308926028124
690000000                -0.506433400984523       -0.8012891302859709
720000000                -0.5771084861890495      -0.751008893982196
750000000                -0.6427989291705055      -0.6945261817768519
780000000                -0.7029603075480879      -0.6323297274678329
810000000                -0.757095696410762       -0.5649568396080547
840000000                -0.8047601990089235      -0.492988743940742
870000000                -0.8455649985865739      -0.41704547641021367
900000000                -0.879180885069146       -0.33778037910609227
930000000                -0.9053412157647819      -0.25587425676176706
960000000                -0.9238442758084858      -0.17202925620844967
990000000                -0.9345550114146491      -0.08696253444107632
1020000000               -0.9374061165729636      -0.0013997842734316053
1050000000               -0.9323984620737487      0.08393131212690233
1080000000               -0.9196008639294494      0.168307630181866
1110000000               -0.8991491968205495      0.2510170793399746
1140000000               -0.8712448663068688      0.33136493969430175
1170000000               -0.8361526616271999      0.408679991345693
1200000000               -0.7941980184447567      0.4823203730487782
1230000000               -0.7457637276901176      0.5516791111684034
1260000000               -0.6912861331518578      0.6161892647507288
1290000000               -0.6312508654389776      0.6753286391576889
1320000000               -0.5661881648893138      0.7286240264692028
1350000000               -0.4966678490686806      0.7756549383961467
1380000000               -0.4232939833323765      0.8160568041071579
1410000000               -0.3466993143638754      0.849523612833047
1440000000               -0.26753952712003487     0.8758099881827797
1470000000               -0.18648738537752507     0.8947326880796432
1500000000               -0.10422681484323988     0.9061715308331069
1530000000               -0.02144698594847441     0.910069754104089
1560000000               0.06116354935961219      0.906433819207426
1590000000               0.14292261526848124      0.8953326783253259
1620000000               0.22316001670588204      0.8768965266923501
1650000000               0.3012229467301499       0.8513150657244535
1680000000               0.376481157222913        0.8188353062264238
1710000000               0.4483318571684752       0.7797589434458119
1740000000               0.5162043073614022       0.7344393376845743
1770000000               0.5795640843219257       0.6832781356621487
1800000000               0.6379169904588491       0.6267215686657399
1830000000               0.6908125912196774       0.5652564640628287
1860000000               0.7378473636677232       0.4994060067771449
1890000000               0.7786674442344904       0.4297252871855955
1920000000               0.8129709665165965       0.3567966713714088
1950000000               0.8405099828160119       0.28122502895986184
1980000000               0.8610919655514749       0.20363285320661012
2010000000               0.8745808871277803       0.12465530686894424
2040000000               0.880897878800608        0.04493522679672489
2070000000               0.8800214710625358       -0.03488188090702035
2100000000               0.8719874198326999       -0.11415282399371357
2130000000               0.8568881244304383       -0.19224165521067055
2.16E9                   0.8348716449757071       -0.26852452211565175
2.19E9                   0.8061403284809213       -0.34239440698689544
2.22E9                   0.7709490545114559       -0.4132657294697271
2.25E9                   0.7296031128214342       -0.4805787857272077
2.28E9                   0.6824557266606348       -0.5438039996251448
2.31E9                   0.6299052361460753       -0.602445963514011
2.34E9                   0.5723919558125757       -0.6560472485478467
2.37E9                   0.5103947181790648       -0.7041919668255023
2.4E9                    0.4444271104246331       -0.7465090683778453
2.43E9                   0.37503340361623005      -0.782675352813444
2.46E9                   0.30278416496233124      -0.8124181643396684
2.49E9                   0.22827154021778462      -0.8355177151976761
2.52E9                   0.1521042070510955       -0.8518089472682422
2.55E9                   0.07490204786554173      -0.8611828069109931
2.58E9                   -0.002709322653804236    -0.8635868070366393
2.61E9                   -0.08010394332069648     -0.859024824740652
2.64E9                   -0.15666054241687866     -0.8475562418611733
2.67E9                   -0.23176707101105443     -0.8292947059930674
2.7E9                    -0.3048248148239653      -0.8044068333446206
2.73E9                   -0.37525237324820404     -0.7731110155738545
2.76E9                   -0.44248981041839813     -0.7356762247488048
2.79E9                   -0.5060030992838205      -0.6924205299516415
2.82E9                   -0.5652887484165351      -0.6437090530785433
2.85E9                   -0.6198783745411536      -0.5899512401679469
2.88E9                   -0.6693429920505396      -0.5315974795051295
2.91E9                   -0.7132968707044234      -0.46913518196453197
2.94E9                   -0.7514008936719794      -0.4030844528012423
2.97E9                   -0.7833653986062741      -0.3339934617556222
3.0E9                    -0.8089525049501534      -0.26243359037814445
3.03E9                   -0.827977934192619       -0.188994415214056
3.06E9                   -0.8403123271604218      -0.11427857487790534
3.09E9                   -0.8458820596911768      -0.038896565725379154
3.12E9                   -0.8446695576159962      0.03653848945227495
3.15E9                   -0.836713113747495       0.11141605399938857
3.18E9                   -0.8221062131058082      0.18513332467295895
3.21E9                   -0.8009963771443478      0.2571002669655604
3.24E9                   -0.7735835426093752      0.3267444927527537
3.27E9                   -0.7401179955868957      0.39351593627810316
3.3E9                    -0.7008978857390287      0.4568912873288068
3.33E9                   -0.6562663498848559      0.5163781434324514
3.36E9                   -0.6066082775305077      0.5715188467685587
3.39E9                   -0.5523467539632788      0.6218939753574869
3.42E9                   -0.49393921904886257     0.6671254622202698
3.45E9                   -0.43187338178447254     0.706879320627784
3.48E9                   -0.3666629323302325      0.7408679578703906
3.51E9                   -0.2988430941615205      0.7688520646726155
3.54E9                   -0.22896605964819267     0.790642071918976
3.57E9                   -0.15759635238099998     0.8060991710834913
3.6E9                    -0.08530615901784683     0.815135899452657
3.63E9                   -0.012670672225537772    0.817716295847173
3.66E9                   0.059736515644451954     0.8138556369177634
3.69E9                   0.1313479312080583       0.8036197679712341
3.72E9                   0.20160661731515042      0.7871240453541146
3.75E9                   0.26997037882075575      0.7645319094518002
3.78E9                   0.3359158499646146       0.7360531082684965
3.81E9                   0.3989423590477797       0.7019415915833686
3.84E9                   0.45857556731735516      0.6624930954153494
3.87E9                   0.5143708591816086       0.6180424366331029
3.9E9                    0.5659164599736736       0.5689605389774693
3.93E9                   0.6128362568238377       0.5156512148093179
3.96E9                   0.6547922983820396       0.4585477319304794
3.99E9                   0.6914869518220759       0.39810920110343634
4.02E9                   0.7226647015467752       0.3348168260384426
4.05E9                   0.7481135833608612       0.26917006176461833
4.08E9                   0.7676662595148933       0.2016827271573326
4.11E9                   0.7812007512346831       0.13287911160471383
4.14E9                   0.7886408526137392       0.06329010523428318
4.17E9                   0.7899562505946819       -0.0065506305229020125
4.2E9                    0.785162369898357        -0.07611044545912066
4.23E9                   0.7743199521568208       -0.14486143371267426
4.26E9                   0.7575343698680606       -0.21228411238739786
4.29E9                   0.7349546721274699       -0.2778710336721044
4.32E9                   0.706772361327229        -0.3411303120529766
4.35E9                   0.6732199056649514       -0.4015890459541274
4.38E9                   0.6345689971336577       -0.4587966157312396
4.41E9                   0.5911285655137535       -0.5123278448566231
4.44E9                   0.5432425553965919       -0.5617860146183136
4.47E9                   0.49128746781215793      -0.6068057218725454
4.5E9                    0.43566966418970826      -0.6470555640160249
4.53E9                   0.3768224307937711       -0.6822406274744512
4.56E9                   0.3152028070052561       -0.712104748732856
4.59E9                   0.25128818981820533      -0.7364325126933073
4.62E9                   0.18557273731179613      -0.7550509533558124
4.65E9                   0.1185636033500403       -0.7678309263406234
4.68E9                   0.0507770429779189       -0.7746881305023661
4.71E9                   -0.01726556869251841     -0.7755837655886828
4.74E9                   -0.08504176166428863     -0.7705248225135852
4.77E9                   -0.1520320019764725      -0.7595640107279422
4.8E9                    -0.21772369611064538     -0.742799331666478
4.83E9                   -0.2816151426700157      -0.7203733078988247
4.86E9                   -0.3432194089266316      -0.6924718752178527
4.89E9                   -0.402068110163428       -0.6593229415161547
4.92E9                   -0.45771506681666935     -0.6211946142054943
4.95E9                   -0.5097398099727605      -0.5783930986139756
4.98E9                   -0.5577509013787474      -0.5312602735597611
5.01E9                   -0.6013890316352432      -0.4801709561673533
5.04E9                   -0.6403298597050188      -0.425529875065865
5.07E9                   -0.6742865587690701      -0.36776837821340114
5.1E9                    -0.7030120372405713      -0.30734090829519256
5.13E9                   -0.7263008095003491      -0.24472128447358346
5.16E9                   -0.7439904986009811      -0.18039883332007803
5.19E9                   -0.7559629621655337      -0.11487441300460327
5.22E9                   -0.7621450414113051      -0.04865637260621208
5.25E9                   -0.7625089395637007      0.017743517599825724
5.28E9                   -0.7570722376340839      0.08381413594746466
5.31E9                   -0.745897552743037       0.14904905570854252
5.34E9                   -0.7290918390082946      0.21295054479597864
5.37E9                   -0.7068053274743233      0.2750334909548024
5.4E9                    -0.679230102695991       0.33482921701975116
5.43E9                   -0.646598320114931       0.39188914400115715
5.46E9                   -0.6091800785386563      0.4457882568023256
5.49E9                   -0.5672809730850457      0.49612832908394033
5.52E9                   -0.5212393636283159      0.5425408696468024
5.55E9                   -0.47142340088918655     0.584689761400438
5.58E9                   -0.41822785630631887     0.6222735744724411
5.61E9                   -0.3620708023024715      0.6550275464395862
5.64E9                   -0.30339018552071284     0.6827252339235795
5.67E9                   -0.24264032700664098     0.7051798484026569
5.7E9                    -0.18028837102410977     0.7222452922232467
5.73E9                   -0.11681069240108287     0.7338169058638415
5.76E9                   -0.05268926665159928     0.739831925514015
5.79E9                   0.01159198802184136      0.7402696365615663
5.82E9                   0.07555087289382847      0.7351512017636369
5.85E9                   0.13871053378966688      0.7245391486215774
5.88E9                   0.2006029971680473       0.7085365174844211
5.91E9                   0.2607725676342971       0.6872856924767268
5.94E9                   0.31877905071977897      0.6609669522503353
5.97E9                   0.3742007827233314       0.6297967818280578
6.0E9                    0.4266374644815432       0.594025981414305
