% Model:              three_layers reality at 0.1mm.mph
% Version:            COMSOL 5.6.0.280
% Date:               Mar 7 2022, 15:41
% Table:              表格 1 - 全局计算 1
% freq (Hz)              real(emw.S11) (1)        imag(emw.S11) (1)
300000000                0.4935611818297904       -0.7897033977870292
330000000                0.4130926838352668       -0.8316437623063913
360000000                0.3293325113968889       -0.8655836469628704
390000000                0.24303145579215624      -0.8912742728558585
420000000                0.1549662811731045       -0.9085347671366011
450000000                0.06593174279126704      -0.9172560357923252
480000000                -0.0232674645651791      -0.9174033012912931
510000000                -0.11182475917986974     -0.9090174773243268
540000000                -0.19893965723692197     -0.8922154985348734
570000000                -0.2838256206143074      -0.8671896920140842
600000000                -0.36571769877282434     -0.8342062600794803
630000000                -0.4438798972641532      -0.7936029348910572
660000000                -0.5176122071538116      -0.7457858615701745
690000000                -0.5862572322764388      -0.6912257659882337
720000000                -0.6492063549715786      -0.6304534645364892
750000000                -0.70590538530459        -0.5640547754580204
780000000                -0.7558596433536575      -0.4926648945104285
810000000                -0.7986384305677057      -0.41696229994284195
840000000                -0.8338788513044524      -0.33766225558435586
870000000                -0.8612889532142094      -0.25550998235538336
900000000                -0.880650161496838       -0.17127357094113357
930000000                -0.8918189893961422      -0.08573670988441584
960000000                -0.894728014793482       3.086963929242853E-4
990000000                -0.889386120070502       0.0860699448190154
1020000000               -0.875877999791891       0.17076091172961866
1050000000               -0.8543629482150618      0.253609319645412
1080000000               -0.8250729455172352      0.33386382174016604
1110000000               -0.7883100685616428      0.4108008365712724
1140000000               -0.744443258433133       0.48373106868234805
1170000000               -0.6939044828615809      0.5520056551012376
1200000000               -0.6371843373397157      0.6150218820217318
1230000000               -0.5748271334544179      0.6722284214765311
1260000000               -0.5074255275163548      0.7231300429766198
1290000000               -0.4356147460304728      0.7672917613964793
1320000000               -0.3600664679330315      0.8043423880837907
1350000000               -0.2814824255602404      0.8339774590142062
1380000000               -0.20058778814118342     0.8559615200508394
1410000000               -0.11812439282074952     0.8701297559088732
1440000000               -0.034843888121230474    0.8763889561605321
1470000000               0.048499145121010306     0.8747178178823924
1500000000               0.1311540315682292       0.8651665909439112
1530000000               0.2123807354417199       0.8478560780285918
1560000000               0.291456430773283        0.8229760073038044
1590000000               0.3676818500556667       0.790782801207119
1620000000               0.4403873568862993       0.7515967699991315
1650000000               0.5089386916897034       0.7057987635556942
1680000000               0.5727423435686847       0.6538263192793802
1710000000               0.6312505056822595       0.5961693479942219
1740000000               0.683965576343892        0.533365403217773
1770000000               0.7304441729496883       0.46599458228153545
1800000000               0.7703006312956028       0.3946741103563054
1830000000               0.8032099685063852       0.32005266050674797
1860000000               0.8289102939157523       0.24280446436635847
1890000000               0.847204658766691        0.1636232687632501
1920000000               0.8579623426558982       0.0832161935616754
1950000000               0.8611195823819451       0.0022975444747948327
1980000000               0.8566797571773087       -0.07841736863632484
2010000000               0.8447130531205567       -0.15821836374073978
2040000000               0.8253556380333475       -0.23640643515107151
2070000000               0.7988083844846078       -0.3122997019559505
2100000000               0.765335178394005        -0.3852392654794889
2130000000               0.7252608361781999       -0.4545950200136722
2.16E9                   0.678968610599214        -0.5197715023531119
2.19E9                   0.6268971766587879       -0.5802138948878776
2.22E9                   0.5695368400407931       -0.6354142742091423
2.25E9                   0.5074245209964608       -0.6849180464117213
2.28E9                   0.44113693859774106      -0.7283301459360514
2.31E9                   0.37128158685112944      -0.7653199928902074
2.34E9                   0.298485842690674        -0.7956236694504555
2.37E9                   0.2233858800928301       -0.8190419220334084
2.4E9                    0.14661823004970262      -0.8354340432148368
2.43E9                   0.06881645522052686      -0.8447100729507362
2.46E9                   -0.009387085020987663    -0.8468252707133012
2.49E9                   -0.08735745368494285     -0.8417796863327865
2.52E9                   -0.1644554203708548      -0.8296224820953653
2.55E9                   -0.24004011890208707     -0.8104580728563473
2.58E9                   -0.31347567772021795     -0.7844509341299175
2.61E9                   -0.3841398681823458      -0.7518274599464411
2.64E9                   -0.45143285136308137     -0.7128748885553335
2.67E9                   -0.5147849212777053      -0.6679381348391142
2.7E9                    -0.5736629218525897      -0.6174154336753346
2.73E9                   -0.6275754463464898      -0.5617534279997128
2.76E9                   -0.6760770612541956      -0.5014420413459074
2.79E9                   -0.7187717759254304      -0.437009274660406
2.82E9                   -0.7553159106762497      -0.3690159640805217
2.85E9                   -0.7854204514830413      -0.2980504969379523
2.88E9                   -0.8088529332062295      -0.22472347715387397
2.91E9                   -0.8254388657014666      -0.1496623384519593
2.94E9                   -0.8350627028387676      -0.07350591495206064
2.97E9                   -0.8376683488620371      0.003101010891365845
3.0E9                    -0.8332591961300317      0.07951315473125453
3.03E9                   -0.8218976908658737      0.15509013660640833
3.06E9                   -0.8037044279132654      0.22920180871983686
3.09E9                   -0.778856780727452       0.3012334641651406
3.12E9                   -0.7475870784119485      0.37059088601465334
3.15E9                   -0.7101803469528382      0.4367051976363301
3.18E9                   -0.666971636316392       0.49903747827734923
3.21E9                   -0.6183429581359212      0.5570831121617972
3.24E9                   -0.564719859837464       0.6103758440303141
3.27E9                   -0.5065676599923027      0.6584915181390177
3.3E9                    -0.444387366986868       0.7010514799132633
3.33E9                   -0.3787112994188764      0.7377256191072191
3.36E9                   -0.3100984237828631      0.7682350294240475
3.39E9                   -0.23912942457002917     0.792354252676704
3.42E9                   -0.16640152567567928     0.8099130665387053
3.45E9                   -0.09252309180515753     0.8207977656290355
3.48E9                   -0.01810805453618336     0.8249518792293581
3.51E9                   0.05622977025248446      0.8223762685372039
3.54E9                   0.1298823819775354       0.8131285557753133
3.57E9                   0.20225319682966242      0.7973218586862604
3.6E9                    0.27276242069893025      0.7751228364531781
3.63E9                   0.34085206099248994      0.7467490924570531
3.66E9                   0.4059904587381944       0.7124660182062148
3.69E9                   0.46767624956421483      0.6725831938347469
3.72E9                   0.5254416964615228       0.6274504798592611
3.75E9                   0.5788553727443155       0.5774539438463802
3.78E9                   0.62752420896432         0.5230117686769751
3.81E9                   0.67109495700665         0.4645702875475074
3.84E9                   0.7092551726680775       0.4026002785257228
3.87E9                   0.741733871137004        0.33759361619451167
3.9E9                    0.7683020520203379       0.27006031044908435
3.93E9                   0.788773297987639        0.20052586815397327
3.96E9                   0.8030046058069037       0.12952881542513286
3.99E9                   0.8108975116027868       0.05761815123433579
4.02E9                   0.8123994482627502       -0.014649505189619473
4.05E9                   0.8075051603899273       -0.08671325262629667
4.08E9                   0.7962579360331099       -0.1580118049027076
4.11E9                   0.7787504113834715       -0.2279878990358909
4.14E9                   0.7551247588728256       -0.296093066695883
4.17E9                   0.7255721581926609       -0.36179256512135893
4.2E9                    0.6903315452515018       -0.4245702582166388
4.23E9                   0.6496877114079833       -0.48393327534450714
4.26E9                   0.6039688691833558       -0.5394163367766217
4.29E9                   0.5535438075989804       -0.5905856997425407
4.32E9                   0.4988187371585552       -0.6370427296236723
4.35E9                   0.4402338855605981       -0.6784271263913175
4.38E9                   0.37825986679579615      -0.7144198355632213
4.41E9                   0.3133938209668564       -0.7447456533903107
4.44E9                   0.2461553154344756       -0.7691755091984576
4.47E9                   0.17708200821913245      -0.7875283847433899
4.5E9                    0.10672509536936979      -0.799672818074598
4.53E9                   0.03564458827349988      -0.8055279397072763
4.56E9                   -0.03559551133448977     -0.8050640007586557
4.59E9                   -0.10643205592859957     -0.7983023736169856
4.62E9                   -0.17630752821867618     -0.7853150323460382
4.65E9                   -0.24467466773139768     -0.7662235481098583
4.68E9                   -0.31100088729527536     -0.7411976580125873
4.71E9                   -0.3747724494518089      -0.7104534763556007
4.74E9                   -0.4354984055853616      -0.6742514095962807
4.77E9                   -0.49271432365328627     -0.632893810303086
4.8E9                    -0.5459858329881294      -0.5867223697338776
4.83E9                   -0.5949119936294393      -0.5361152177684633
4.86E9                   -0.6391284598665689      -0.48148368709030676
4.89E9                   -0.6783103678284506      -0.4232687123699296
4.92E9                   -0.7121748502326641      -0.3619368712954761
4.95E9                   -0.7404830775023273      -0.29797612154241715
4.98E9                   -0.7630417452927913      -0.2318913327845448
5.01E9                   -0.7797039695880574      -0.16419974435644646
5.04E9                   -0.7903696039065298      -0.09542648922574008
5.07E9                   -0.7949850483676235      -0.026100309109610167
5.1E9                    -0.7935426646732969      0.043250456689206684
5.13E9                   -0.7860799302609888      0.11210158870213952
5.16E9                   -0.7726784475140291      0.17993645853080897
5.19E9                   -0.7534628687743544      0.24624935059492747
5.22E9                   -0.7285997207109967      0.3105487385896113
5.25E9                   -0.6982960437441573      0.3723605770406003
5.28E9                   -0.6627977373911482      0.4312315888074828
5.31E9                   -0.6223875365897877      0.48673245078653027
5.34E9                   -0.5773826227640377      0.53846074286412
5.37E9                   -0.5281319578616811      0.5860435484167998
5.4E9                    -0.4750134788153287      0.6291396662692502
5.43E9                   -0.4184312835121799      0.6674414784802901
5.46E9                   -0.35881288486552726     0.7006765791934091
5.49E9                   -0.29660653373072154     0.7286092862106222
5.52E9                   -0.23227854307436804     0.7510421296901496
5.55E9                   -0.16631050456883562     0.7678173560293811
5.58E9                   -0.09919628137541353     0.7788184183643767
5.61E9                   -0.03143868518634925     0.7839713638225968
5.64E9                   0.03645420441694718      0.7832459831911719
5.67E9                   0.10397305202759632      0.7766565703693239
5.7E9                    0.17061150924449234      0.7642621558593572
5.73E9                   0.23587052606353576      0.7461661350310312
5.76E9                   0.29926254477923314      0.7225152992727871
5.79E9                   0.36031542196280225      0.6934983687812051
5.82E9                   0.41857600554800334      0.6593441809620182
5.85E9                   0.47361339098180083      0.6203196813414475
5.88E9                   0.5250219473736026       0.5767277997263006
5.91E9                   0.5724242134118102       0.5289052090263192
5.94E9                   0.6154737191468886       0.4772198999852586
5.97E9                   0.6538577234526812       0.4220684852048384
6.0E9                    0.6872997997656463       0.36387316679136744
