% Model:              three_layers reality at 0.1mm.mph
% Version:            COMSOL 5.6.0.280
% Date:               Mar 7 2022, 15:34
% Table:              表格 1 - 全局计算 1
% freq (Hz)              real(emw.S11) (1)        imag(emw.S11) (1)
300000000                0.5011821236219165       -0.7931752665721846
330000000                0.4204975473933777       -0.8362313061322167
360000000                0.33634009381237623      -0.8712500624337447
390000000                0.2494753324813324       -0.8979567193699126
420000000                0.1606965377595076       -0.9161484483970708
450000000                0.07081623911128664      -0.925697819276143
480000000                -0.01934218153223917     -0.9265549970952036
510000000                -0.1089528267613213      -0.9187488621720711
540000000                -0.19719551574374636     -0.9023871431759617
570000000                -0.2832638573155743      -0.8776556292777369
600000000                -0.3663731046400993      -0.8448165153859595
630000000                -0.44576772728837527     -0.804205929963613
660000000                -0.5207286368490245      -0.7562306939933624
690000000                -0.59058000222202        -0.7013643619310743
720000000                -0.6546955947488418      -0.640142598151558
750000000                -0.7125046060413998      -0.5731579465890609
780000000                -0.7634968871127973      -0.5010540546923706
810000000                -0.80722756215874        -0.42451941722324565
840000000                -0.8433209773839258      -0.34428070834461233
870000000                -0.8714739515297698      -0.26109577367498926
900000000                -0.8914583020834654      -0.1757463563161148
930000000                -0.9031226286000984      -0.08903063256813426
960000000                -0.9063933422593214      -0.0017556337415125804
990000000                -0.9012749383904531      0.08527036896901719
1020000000               -0.8878495164761486      0.17124544064548083
1050000000               -0.8662755596431252      0.2553814448319602
1080000000               -0.8367859930560277      0.33691131948587105
1110000000               -0.7996855476612871      0.4150960965905836
1140000000               -0.7553474623520843      0.48923159968459606
1170000000               -0.7042095639011516      0.5586547571053989
1200000000               -0.6467697696420345      0.6227494738813455
1230000000               -0.5835810630103186      0.6809520104602895
1260000000               -0.5152459965285988      0.7327558220878801
1290000000               -0.4424107806779767      0.7777158188519906
1320000000               -0.36575902016355855     0.8154520127687876
1350000000               -0.2860051616048427      0.845652524840895
1380000000               -0.20388771837139474     0.8680759317848455
1410000000               -0.12016233924877628     0.8825529388967595
1440000000               -0.035594788029889204    0.8889873722434696
1470000000               0.049046099297330774     0.8873564900542743
1500000000               0.13299541399889367      0.8777106196613839
1530000000               0.21549906679671713      0.8601721326605727
1560000000               0.29582051074179977      0.8349337768996759
1590000000               0.3732472358617063       0.8022563896603979
1620000000               0.44709697961017025      0.7624660216611432
1650000000               0.5167236011398577       0.7159505064416644
1680000000               0.581522571202766        0.6631555142600596
1710000000               0.640936034441221        0.6045801335374448
1740000000               0.6944574053420723       0.5407720265750696
1770000000               0.7416354644526607       0.4723222093457777
1800000000               0.7820779270560547       0.3998595076443439
1830000000               0.8154544622566416       0.32404474396665545
1860000000               0.8414991467072842       0.24556471080485248
1890000000               0.8600123438211515       0.16512598672151005
1920000000               0.8708620064698543       0.08344865115274012
1950000000               0.8739844087955899       0.0012599521707431004
1980000000               0.8693843208754277       -0.0807120220957737
2010000000               0.8571346483687752       -0.16174462442716897
2040000000               0.8373755668658109       -0.2411268486817042
2070000000               0.8103131855541641       -0.3181654331613568
2100000000               0.7762177725023811       -0.39219087618308895
2130000000               0.735421556308232        -0.4625634060187629
2.16E9                   0.6883160730035205       -0.5286789834337204
2.19E9                   0.6353489366001686       -0.5899754352539551
2.22E9                   0.5770197671490841       -0.6459387796905893
2.25E9                   0.5138748374710665       -0.6961096360730821
2.28E9                   0.4464999096041675       -0.7400892373152486
2.31E9                   0.37551095567528636      -0.7775440025841833
2.34E9                   0.3015432555227923       -0.8082071718692613
2.37E9                   0.22524067553203794      -0.8318762843273408
2.4E9                    0.1472479451640556       -0.8484068412248021
2.43E9                   0.06820813256638392      -0.8577048306174295
2.46E9                   -0.011235119737860445    -0.8597220360336533
2.49E9                   -0.0904339562181221      -0.8544566092326207
2.52E9                   -0.16873528524325218     -0.8419581174840426
2.55E9                   -0.2454843443904224      -0.8223338943186875
2.58E9                   -0.32003210735029497     -0.795753604582962
2.61E9                   -0.39174441015157707     -0.7624506300728563
2.64E9                   -0.46001089186064476     -0.7227205037200353
2.67E9                   -0.5242527480785618      -0.6769173432517794
2.7E9                    -0.5839290752492746      -0.6254492124448743
2.73E9                   -0.6385419801048484      -0.5687730217848553
2.76E9                   -0.687640727038671       -0.5073892747660157
2.79E9                   -0.7308251526720669      -0.44183677123858695
2.82E9                   -0.7677484976259064      -0.37268728548327545
2.85E9                   -0.7981197369268019      -0.30054020577241003
2.88E9                   -0.8217054445100749      -0.22601712154314263
2.91E9                   -0.8383312006878294      -0.14975635539404167
2.94E9                   -0.8478825388589606      -0.07240744980245045
2.97E9                   -0.8503054233807448      0.005374370033191091
3.0E9                    -0.8456062512652913      0.08293372716175051
3.03E9                   -0.8338513737893243      0.15962058157249331
3.06E9                   -0.8151661390292424      0.23479563650553611
3.09E9                   -0.7897334619664064      0.30783562074780363
3.12E9                   -0.7577919346170762      0.3781384051338035
3.15E9                   -0.719633494005372       0.4451279135309884
3.18E9                   -0.6756006703065751      0.5082587916505216
3.21E9                   -0.6260834403559052      0.5670208015370447
3.24E9                   -0.5715157127440291      0.6209429140073142
3.27E9                   -0.5123714696305064      0.669597075212572
3.3E9                    -0.44916058779423107     0.7126016253737169
3.33E9                   -0.38242435822924387     0.7496243469387006
3.36E9                   -0.3127307213716004      0.7803851154037744
3.39E9                   -0.2406692354047693      0.8046581192044964
3.42E9                   -0.1668458000618488      0.8222736064252903
3.45E9                   -0.09187716874721837     0.8331191078806968
3.48E9                   -0.016385298670051184    0.8371400809583567
3.51E9                   0.05900838940693945      0.8343399201778268
3.54E9                   0.13368874588189092      0.8247792917721624
3.57E9                   0.20705250377222253      0.808574772666995
3.6E9                    0.2785136362419028       0.7858968078294319
3.63E9                   0.3475083302891806       0.7569670394768828
3.66E9                   0.4134994633880057       0.7220550995261643
3.69E9                   0.475980499217291        0.6814749858314845
3.72E9                   0.5344787543471473       0.6355811597408485
3.75E9                   0.5885580241508027       0.5847645090631
3.78E9                   0.637820592226868        0.5294483209689467
3.81E9                   0.6819086876833013       0.47008440429585935
3.84E9                   0.7205055019629537       0.40714948374477156
3.87E9                   0.7533359269287019       0.3411419474993735
3.9E9                    0.7801672112406988       0.2725789578678727
3.93E9                   0.8008097297088583       0.2019938391119879
3.96E9                   0.8151180044364872       0.12993356366162792
3.99E9                   0.8229920125459256       0.056956101076027936
4.02E9                   0.8243786904463772       -0.016372600444589304
4.05E9                   0.8192734385775143       -0.08948216013329356
4.08E9                   0.807721376010862        -0.16180188490819303
4.11E9                   0.7898181043342185       -0.2327653897008809
4.14E9                   0.7657098050232286       -0.30181554963030777
4.17E9                   0.735592589084721        -0.3684095695874464
4.2E9                    0.6997111132054776       -0.43202396120060493
4.23E9                   0.6583565494614817       -0.4921592616968594
4.26E9                   0.6118640329199447       -0.5483443942228561
4.29E9                   0.5606097117242096       -0.6001406341875193
4.32E9                   0.50500749652294         -0.6471451935734385
4.35E9                   0.4455055652203216       -0.6889944564687093
4.38E9                   0.3825826413854248       -0.7253668943162912
4.41E9                   0.31674404168288306      -0.755985667553552
4.44E9                   0.24851748398112045      -0.7806208930380371
4.47E9                   0.17844866016737448      -0.7990915349605912
4.5E9                    0.10709659976061321      -0.8112668665022924
4.53E9                   0.03502887437444944      -0.8170674520769095
4.56E9                   -0.037183286215861776    -0.8164656135722416
4.59E9                   -0.10896988250779015     -0.8094853659785812
4.62E9                   -0.17976695114861752     -0.7962018345396547
4.65E9                   -0.24902121050102563     -0.776740192708858
4.68E9                   -0.31619448987468063     -0.7512741813185887
4.71E9                   -0.38076791752634886     -0.7200242772649637
4.74E9                   -0.4422458739571565      -0.6832555695842744
4.77E9                   -0.5001597374116666      -0.6412753731636167
4.8E9                    -0.554071447655055       -0.5944305748315571
4.83E9                   -0.6035768902350711      -0.5431046779842563
4.86E9                   -0.6483090645902752      -0.48771450369438984
4.89E9                   -0.6879409607436184      -0.4287065238024246
4.92E9                   -0.7221880456210132      -0.36655284015402845
4.95E9                   -0.7508102601483748      -0.30174687195230754
4.98E9                   -0.7736134529174498      -0.2347988567742305
5.01E9                   -0.7904502201007757      -0.1662312991626352
5.04E9                   -0.8012201757916251      -0.09657450653343114
5.07E9                   -0.8058697311602256      -0.026362331738884272
5.1E9                    -0.804391501869276       0.043871804571330594
5.13E9                   -0.7968234770941357      0.11359860314222928
5.16E9                   -0.783248060048671       0.18229634465784159
5.19E9                   -0.7637910299376893      0.24945421979330507
5.22E9                   -0.7386203968447751      0.31457563321940074
5.25E9                   -0.7079450568474513      0.3771815333954023
5.28E9                   -0.672013137256376       0.4368137373061937
5.31E9                   -0.6311099639521672      0.4930381432776694
5.34E9                   -0.5855556658442773      0.5454476949844621
5.37E9                   -0.5357025144077407      0.5936649914423076
5.4E9                    -0.4819321389260209      0.6373445146806349
5.43E9                   -0.42465274315038315     0.6761745313812079
5.46E9                   -0.36429638809019327     0.7098787803895787
5.49E9                   -0.30131632732537705     0.738218066776914
5.52E9                   -0.23618431520351546     0.7609918482049598
5.55E9                   -0.16938777266641322     0.7780398379153737
5.58E9                   -0.10142669524987369     0.7892435803294755
5.61E9                   -0.03281021917505864     0.7945278957681284
5.64E9                   0.03594718296350657      0.7938620511367982
5.67E9                   0.10432983435640147      0.7872605022235146
5.7E9                    0.17182519779760136      0.7747830782483199
5.73E9                   0.23792825863754016      0.7565345428676088
5.76E9                   0.30214575923878545      0.732663556624512
5.79E9                   0.3640001385846439       0.703361154044799
5.82E9                   0.4230331185131828       0.6688588958546439
5.85E9                   0.47880897497586244      0.6294268395256277
5.88E9                   0.5309175933949064       0.5853713996022002
5.91E9                   0.5789774069290292       0.5370330822669385
5.94E9                   0.6226382653594226       0.4847840184689594
5.97E9                   0.661584213022562        0.42902520699018143
6.0E9                    0.6955360983142267       0.37018340622399626
