% Model:              three_layers reality at 0.1mm.mph
% Version:            COMSOL 5.6.0.280
% Date:               Feb 25 2022, 15:26
% Table:              表格 1 - 全局计算 1
% freq (Hz)              real(emw.S11) (1)        imag(emw.S11) (1)
300000000                0.5984573496843625       -0.728263467390739
330000000                0.5328638607285695       -0.7767624962570844
360000000                0.46345361934581286      -0.8194358559012846
390000000                0.3907306280605893       -0.8559796732908058
420000000                0.31522558798128986      -0.8861344198332045
450000000                0.23749131983931449      -0.9096870711054112
480000000                0.158098229266367        -0.926472869292922
510000000                0.0776297713810985       -0.9363766899571321
540000000                -0.003322100550284368    -0.9393340129490076
570000000                -0.08416149678956053     -0.9353314960961104
600000000                -0.16429314874797002     -0.9244071512480094
630000000                -0.24312694004171506     -0.9066501234252723
660000000                -0.32008238468875727     -0.8822000759631661
690000000                -0.39459302396487406     -0.8512461868618537
720000000                -0.4661107121192         -0.8140257639421092
750000000                -0.5341097600478355      -0.7708224893312415
780000000                -0.5980909065367079      -0.7219643065344347
810000000                -0.6575850876118735      -0.6678209657530163
840000000                -0.7121569745446353      -0.6088012465825416
870000000                -0.7614082538991538      -0.5453498787346166
900000000                -0.8049806231358565      -0.4779441853500105
930000000                -0.8425584788907792      -0.40709047438444745
960000000                -0.8738712762477928      -0.333320206772458
990000000                -0.8986955404904663      -0.25718597146900807
1020000000               -0.9168565154651976      -0.1792572990283863
1050000000               -0.9282294354580307      -0.10011634749884807
1080000000               -0.93274041095716        -0.020353494218545844
1110000000               -0.9303669214723593      0.05943713042011092
1140000000               -0.9211379122157828      0.13866213264375132
1170000000               -0.9051334945174164      0.21673333178271897
1200000000               -0.8824842532876108      0.29307218869248175
1230000000               -0.8533701680854018      0.36711415071351783
1260000000               -0.8180191575546343      0.43831287914520767
1290000000               -0.7767052599486345      0.5061443264116362
1320000000               -0.7297464657336535      0.5701106308677417
1350000000               -0.6775022206751186      0.6297437998110206
1380000000               -0.6203706205454933      0.684609152683601
1410000000               -0.5587853211309998      0.7343084985712439
1440000000               -0.4932121888440124      0.7784830250115705
1470000000               -0.42414571982730315     0.8168158769471147
1500000000               -0.35210525619838207     0.8490344081215678
1530000000               -0.27763103017875074     0.8749120893583275
1560000000               -0.2012800673753107      0.8942700614859618
1590000000               -0.12362198125815899     0.906978323440288
1620000000               -0.045234691824434674    0.9129565489312985
1650000000               0.033299898998624226     0.912174528210985
1680000000               0.11140024235518152      0.9046522342121689
1710000000               0.1884894553467291       0.8904595152431984
1740000000               0.26399958003386975      0.8697154191750125
1770000000               0.33737575720426705      0.8425871567674179
1800000000               0.4080802852497438       0.8092887142083633
1830000000               0.47559653483041164      0.7700791275077856
1860000000               0.5394326919411263       0.725260433628769
1890000000               0.5991253035786637       0.6751753151957146
1920000000               0.6542426014283151       0.6202044578683391
1950000000               0.7043875811987864       0.560763641071749
1980000000               0.7492008170617453       0.497300584392919
2010000000               0.7883629925132948       0.4302915735679702
2040000000               0.8215971312440268       0.3602378911165524
2070000000               0.8486705136588061       0.2876620779104355
2100000000               0.869396266997034        0.21310405275107863
2130000000               0.883634619167512        0.13711711800453838
2.16E9                   0.8912938088108859       0.06026387975802566
2.19E9                   0.8923306464068983       -0.016887888642316436
2.22E9                   0.8867507235636651       -0.09376941032880892
2.25E9                   0.8746082700298932       -0.16981506708220195
2.28E9                   0.8560056602888712       -0.24446653048543207
2.31E9                   0.83109257383129         -0.31717683399418406
2.34E9                   0.8000648154658592       -0.3874143574656116
2.37E9                   0.7631628038450334       -0.45466669740523874
2.4E9                    0.7206697382237999       -0.5184443963420314
2.43E9                   0.6729094545760426       -0.5782845061191623
2.46E9                   0.6202439831391505       -0.6337539599247699
2.49E9                   0.5630708204606741       -0.6844527271855771
2.52E9                   0.5018199310275652       -0.7300167235443912
2.55E9                   0.4369504982344264       -0.7701204456070314
2.58E9                   0.36894745341918683      -0.8044792993606702
2.61E9                   0.2983178227160272       -0.832851596988776
2.64E9                   0.22558693940134644      -0.8550402110358498
2.67E9                   0.15129456517470086      -0.870893893822194
2.7E9                    0.07599094640909919      -0.8803082812597691
2.73E9                   2.328107749102415E-4     -0.8832265940307713
2.76E9                   -0.07542069717202171     -0.8796400291695581
2.79E9                   -0.15041213186959157     -0.86958781787001
2.82E9                   -0.22418988395268968     -0.8531569232116039
2.85E9                   -0.2962122950937025      -0.8304813632335531
2.88E9                   -0.3659517032567798      -0.8017411603076279
2.91E9                   -0.4328983766957133      -0.767160928983391
2.94E9                   -0.4965643017161731      -0.7270081198821683
2.97E9                   -0.5564867947349406      -0.681590938870924
3.0E9                    -0.6122319126393221      -0.6312559610226266
3.03E9                   -0.6633976372000926      -0.5763854595063271
3.06E9                   -0.709616810875514       -0.5173944704719402
3.09E9                   -0.7505598024606216      -0.4547276168018735
3.12E9                   -0.7859368829950285      -0.3888557150939141
3.15E9                   -0.8155002941134447      -0.320272192235093
3.18E9                   -0.8390459934425176      -0.24948933944397514
3.21E9                   -0.8564150641715582      -0.1770344330256751
3.24E9                   -0.8674947786035455      -0.10344575231866118
3.27E9                   -0.8722193083861353      -0.02926852597704412
3.3E9                    -0.870570076987548       0.0449491615751102
3.33E9                   -0.8625757529462617      0.11866047169680859
3.36E9                   -0.8483118853260496      0.19132388902603736
3.39E9                   -0.8279001857506118      0.26240724341248284
3.42E9                   -0.8015074641782693      0.33139164546799754
3.45E9                   -0.7693442284069814      0.3977753054567153
3.48E9                   -0.7316629598952555      0.46107720677179087
3.51E9                   -0.6887560810584126      0.5208406063621818
3.54E9                   -0.6409536315441628      0.5766363362037241
3.57E9                   -0.5886206732800189      0.6280658816154903
3.6E9                    -0.5321544459587398      0.6747642144493855
3.63E9                   -0.47198129648986253     0.7164023612171216
3.66E9                   -0.4085534075698567      0.7526896885590056
3.69E9                   -0.34234535146119377     0.7833758911767842
3.72E9                   -0.2738504964453367      0.8082526695233372
3.75E9                   -0.20357729372195044     0.8271550873725149
3.78E9                   -0.1320454732001032      0.839962601664796
3.81E9                   -0.05978217683005891     0.8465997594886079
3.84E9                   0.012681941789174722     0.8470365593655388
3.87E9                   0.08481662258148717      0.8412884762852534
3.9E9                    0.1560958802089589       0.8294161522969828
3.93E9                   0.22600183239003543      0.8115247569159334
3.96E9                   0.2940284470525018       0.787763024223632
3.99E9                   0.3596851803691685       0.758321976341873
4.02E9                   0.42250047902765964      0.7234333458038752
4.05E9                   0.48202512179099827      0.683367712040142
4.08E9                   0.5378353775137982       0.6384323695790942
4.11E9                   0.5895359596211236       0.5889689471221055
4.14E9                   0.6367627595360464       0.5353507975456866
4.17E9                   0.679185343721278        0.47798017916606805
4.2E9                    0.7165092006527374       0.4172852485004014
4.23E9                   0.7484777249639095       0.35371688501036314
4.26E9                   0.7748739267495147       0.28774536917677146
4.29E9                   0.795521855260483        0.21985693637732978
4.32E9                   0.8102877278572724       0.1505502305595193
4.35E9                   0.8190807575073649       0.08033268248019482
4.38E9                   0.8218536745014557       0.009716837741728815
4.41E9                   0.8186029403112635       -0.06078334047858807
4.44E9                   0.8093686532070272       -0.13065616957961096
4.47E9                   0.7942341465345341       -0.19939592242304222
4.5E9                    0.7733252817485661       -0.2665064547508362
4.53E9                   0.7468094397485161       -0.33150476043714816
4.56E9                   0.7148942160079564       -0.3939244294458473
4.59E9                   0.6778258273350176       -0.45331898320807984
4.62E9                   0.6358872409050392       -0.5092650621633384
4.65E9                   0.5893960388790876       -0.561365441345057
4.68E9                   0.5387020346955661       -0.6092518510438683
4.71E9                   0.48418465935680255      -0.6525875816560288
4.74E9                   0.4262501379183295       -0.6910698539861411
4.77E9                   0.36532847767229093      -0.7244319386591638
4.8E9                    0.3018702903484524       -0.7524450105146407
4.83E9                   0.2363434711067745       -0.7749197258355922
4.86E9                   0.16922975754113045      -0.7917075118584627
4.89E9                   0.10102119251798457      -0.8027015594049587
4.92E9                   0.0322165154805818       -0.807837510922396
4.95E9                   -0.036682492102705314    -0.807093837887263
4.98E9                   -0.10517468053617307     -0.8004919035686209
5.01E9                   -0.1727631974157241      -0.7880957095364208
5.04E9                   -0.23895911704029854     -0.7700113269302427
5.07E9                   -0.3032850055877078      -0.7463860163152527
5.1E9                    -0.3652783943895771      -0.7174070427897834
5.13E9                   -0.42449513431713326     -0.68330019587002
5.16E9                   -0.48051260538171353     -0.6443280264693272
5.19E9                   -0.5329327574503439      -0.6007878157550586
5.22E9                   -0.5813849598651453      -0.5530092927643568
5.25E9                   -0.6255286399972866      -0.5013521190532437
5.28E9                   -0.6650556925298018      -0.44620315966936613
5.31E9                   -0.6996926427935046      -0.38797356045027176
5.34E9                   -0.7292025484886979      -0.3270956526198754
5.37E9                   -0.7533866250712205      -0.26401970725519347
5.4E9                    -0.77208558165198        -0.19921056392820224
5.43E9                   -0.7851806562496169      -0.13314416009956698
5.46E9                   -0.7925943422441931      -0.06630398917324117
5.49E9                   -0.7942908010234693      8.224834938282543E-4
5.52E9                   -0.7902759593809389      0.06774741727488655
5.55E9                   -0.7805972935614532      0.13398617644236013
5.58E9                   -0.7653433050713606      0.19906086563925945
5.61E9                   -0.7446426962233228      0.26250379383089073
5.64E9                   -0.7186632557455809      0.32386084187311237
5.67E9                   -0.6876104663620327      0.3826947109859127
5.7E9                    -0.6517258470174719      0.4385880313441483
5.73E9                   -0.611285042631445       0.49114631116290525
5.76E9                   -0.5665956744960597      0.5400007069262575
5.79E9                   -0.5179949657697538      0.5848105947065729
5.82E9                   -0.46584715912138003     0.6252659223196204
5.85E9                   -0.410540747239189       0.6610893230335577
5.88E9                   -0.35248554042966335     0.6920379743803778
5.91E9                   -0.2921095976336564      0.7179051898378289
5.94E9                   -0.22985604741029864     0.7385217355577259
5.97E9                   -0.16617982450186997     0.7537568677489412
6.0E9                    -0.10154434583631372     0.7635190887232528
