% Model:              three_layers reality at 0.1mm.mph
% Version:            COMSOL 5.6.0.280
% Date:               Feb 22 2022, 10:51
% Table:              表格 1 - 全局计算 1
% freq (Hz)              real(emw.S11) (1)        imag(emw.S11) (1)
300000000                0.6320003852746411       -0.7593278028978176
330000000                0.5634135633528657       -0.8119597475103659
360000000                0.49050355659724476      -0.8584129533925321
390000000                0.41382533318952464      -0.8983338899549239
420000000                0.33396269331858         -0.9314186864955936
450000000                0.25152384493837515      -0.957415488925154
480000000                0.16713678485329064      -0.9761264244521641
510000000                0.08144452058787728      -0.9874091576394284
540000000                -0.004899832834645324    -0.9911780249346851
570000000                -0.09123804275922912     -0.9874047369191814
600000000                -0.17691179926414513     -0.9761186411809251
630000000                -0.26126776578223326     -0.9574065416216405
660000000                -0.34366260139672433     -0.9314120737485114
690000000                -0.42346791594205774     -0.8983346386213502
720000000                -0.50007511766893        -0.8584279021361226
750000000                -0.5729001157410268      -0.8119978693743644
780000000                -0.6413878388168384      -0.759400547938197
810000000                -0.7050165336998339      -0.7010392170608605
840000000                -0.7633018085676622      -0.6373613231241013
870000000                -0.8158003875039024      -0.5688550254402646
900000000                -0.862113545502869       -0.4960454189545508
930000000                -0.9018901951470767      -0.41949046397541345
960000000                -0.9348295995279872      -0.33977665507356164
990000000                -0.9606836886554553      -0.25751446420345864
1020000000               -0.9792589602132882      -0.17333359479257016
1050000000               -0.9904179489671251      -0.08787808514759321
1080000000               -0.9940802526762014      -0.0018013019085849195
1110000000               -0.9902231065901321      0.08423913662235877
1140000000               -0.9788815021033254      0.1695864648479139
1170000000               -0.9601478493845552      0.253589860721401
1200000000               -0.9341711876119331      0.33560948150236647
1230000000               -0.9011559503767256      0.4150214035402841
1260000000               -0.8613602976549729      0.49122242617356876
1290000000               -0.8150940293257494      0.563634701401015
1320000000               -0.7627160988409933      0.6317101523826414
1350000000               -0.7046317487291909      0.694934646274092
1380000000               -0.6412892929306564      0.7528318887934438
1410000000               -0.5731765733633901      0.8049670110386495
1440000000               -0.5008171209864785      0.8509498214317768
1470000000               -0.4247660534282949      0.8904376991123061
1500000000               -0.34560574327492755     0.9231381080725752
1530000000               -0.2639412925964968      0.9488107147114815
1560000000               -0.1803958502901276      0.9672690949474183
1590000000               -0.09560580985856025     0.978382020385221
1620000000               -0.010215925533846716    0.9820743165844708
1650000000               0.07512561515799004      0.9783272898723929
1680000000               0.15977212427839335      0.9671787225378714
1710000000               0.24308331448425893      0.9487224395611596
1740000000               0.324430131099145        0.9231074532601058
1770000000               0.4031994798151175       0.8905366952306655
1800000000               0.4787988150880548       0.8512653480260435
1830000000               0.5506605563977051       0.8055987916648208
1860000000               0.618246300824643        0.7538901827363432
1890000000               0.6810508023582426       0.6965376862801715
1920000000               0.7386056903572371       0.6339813828452384
1950000000               0.7904829017055296       0.5666998752281696
1980000000               0.8362978036670707       0.49520662104457874
2010000000               0.875711986605986        0.4200460192093141
2040000000               0.9084357086181503       0.3417892794170697
2070000000               0.9342299765450858       0.2610301051427354
2100000000               0.9529082508332518       0.17838022094746242
2130000000               0.9643377641861683       0.09446477559657296
2.16E9                   0.9684404466000501       0.009917651661006173
2.19E9                   0.9651934509780258       -0.07462328812464546
2.22E9                   0.9546292740064364       -0.15852098895349376
2.25E9                   0.9368354653234345       -0.24114399745931997
2.28E9                   0.9119539149878939       -0.3218712279884985
2.31E9                   0.8801797076419693       -0.40009666011964556
2.34E9                   0.8417595386867589       -0.47523391034259144
2.37E9                   0.7969897100797816       -0.5467206091832516
2.4E9                    0.7462137576891235       -0.6140225227348648
2.43E9                   0.6898197850750691       -0.6766373957244093
2.46E9                   0.6282375632907545       -0.7340985413177782
2.49E9                   0.5619354040990043       -0.7859782218796865
2.52E9                   0.4914167695430578       -0.8318908325080736
2.55E9                   0.4172165803993963       -0.8714958471728287
2.58E9                   0.33989722314093707      -0.9045004584104103
2.61E9                   0.2600442943395379       -0.9306618487193186
2.64E9                   0.1782621389598285       -0.949789057216546
2.67E9                   0.09516923781447595      -0.9617444269851826
2.7E9                    0.011393491037066461     -0.9664446299799379
2.73E9                   -0.07243256335550896     -0.9638612699599096
2.76E9                   -0.15567655997886637     -0.9540210642261308
2.79E9                   -0.2377111115028394      -0.9370056052735717
2.82E9                   -0.3179185742215488      -0.9129507045712709
2.85E9                   -0.39569573854522294     -0.8820453228522308
2.88E9                   -0.4704584091513475      -0.8445300939781479
2.91E9                   -0.5416458393064192      -0.8006954526641504
2.94E9                   -0.6087249848596472      -0.7508793794876523
2.97E9                   -0.6711945441401346      -0.6954647799999382
3.0E9                    -0.728588751711747       -0.6348765177962232
3.03E9                   -0.7804808955427703      -0.5695781245727538
3.06E9                   -0.8264865294503356      -0.5000682129600932
3.09E9                   -0.8662663550910145      -0.42687662057701614
3.12E9                   -0.899528750517191       -0.3505603161143166
3.15E9                   -0.9260319253112697      -0.27169910033603134
3.18E9                   -0.9455856855242541      -0.190891136568744
3.21E9                   -0.9580527949649039      -0.10874834669514946
3.24E9                   -0.9633499228593725      -0.025891709624687516
3.27E9                   -0.9614481713834154      0.057053500065199395
3.3E9                    -0.9523731800773952      0.13946249544906583
3.33E9                   -0.936204807556587       0.22071574463374466
3.36E9                   -0.9130763943062163      0.3002036845602101
3.39E9                   -0.8831736135793543      0.3773313443440096
3.42E9                   -0.8467329206187864      0.45152284182249747
3.45E9                   -0.8040396135392552      0.5222257180889089
3.48E9                   -0.7554255222599209      0.5889150759888362
3.51E9                   -0.7012663451381805      0.6510974897445072
3.54E9                   -0.6419786559735674      0.7083146548851332
3.57E9                   -0.5780166072900029      0.7601467496404277
3.6E9                    -0.5098683588748528      0.8062154816540961
3.63E9                   -0.4380522630980778      0.8461867972621567
3.66E9                   -0.363112840892365       0.8797732341294886
3.69E9                   -0.285616583613694       0.9067359021818048
3.72E9                   -0.20614761693703196     0.9268860817517673
3.75E9                   -0.12530326317128945     0.9400864318787767
3.78E9                   -0.04368953815326968     0.946251805607459
3.81E9                   0.0380833817497285       0.9453496729797211
3.84E9                   0.1194056886673538       0.9374001561629222
3.87E9                   0.1996724364486518       0.9224756843349766
3.9E9                    0.27828796941809647      0.9007002781394869
3.93E9                   0.3546702606659869       0.8722484743344268
3.96E9                   0.42825513613954114      0.837343900808956
3.99E9                   0.4985003612521087       0.7962575112044887
4.02E9                   0.5648895657131252       0.749305488016796
4.05E9                   0.6269359804782578       0.6968468240643301
4.08E9                   0.6841859588805929       0.6392805950023592
4.11E9                   0.7362222533857278       0.5770429396654213
4.14E9                   0.7826670204203516       0.5106037696148519
4.17E9                   0.8231845282328245       0.44046323364807727
4.2E9                    0.8574835466353605       0.36714796614087675
4.23E9                   0.8853194016454552       0.29120715020256854
4.26E9                   0.9064956823509167       0.213208427131513
4.29E9                   0.9208655908567253       0.1337336834576159
4.32E9                   0.9283329289743758       0.05337474606293077
4.35E9                   0.9288527173125068       -0.027270984951532257
4.38E9                   0.9224314438859157       -0.1076049362883514
4.41E9                   0.9091269407448579       -0.1870317649723431
4.44E9                   0.8890478887215849       -0.2649637354139721
4.47E9                   0.8623529524469209       -0.34082503943857617
4.5E9                    0.8292495502490035       -0.41405602831141874
4.53E9                   0.7899922664769599       -0.48411732538753116
4.56E9                   0.7448809168180841       -0.5504937885774137
4.59E9                   0.6942582803756118       -0.612698292500736
4.62E9                   0.638507515356864        -0.6702753016322569
4.65E9                   0.5780492780390875       -0.7228042077015493
4.68E9                   0.5133385669653409       -0.7699024070383326
4.71E9                   0.4448613160050721       -0.8112280961087583
4.74E9                   0.3731307608882499       -0.8464827659240313
4.77E9                   0.2986836044083285       -0.8754133779034735
4.8E9                    0.22207600611833148      -0.897814205050548
4.83E9                   0.1438794236765924       -0.9135283231508966
4.86E9                   0.06467633484504436      -0.9224487378155607
4.89E9                   -0.014944128073992325    -0.9245191349200225
4.92E9                   -0.09439059704738853     -0.9197342449211491
4.95E9                   -0.17307390372267425     -0.908139815469867
4.98E9                   -0.2504114936209469      -0.8898321915384759
5.01E9                   -0.32583178127978557     -0.8649575074147136
5.04E9                   -0.39877840992555974     -0.8337104998940117
5.07E9                   -0.4687143817587578      -0.7963329563134861
5.1E9                    -0.5351260284730435      -0.7531118141412885
5.13E9                   -0.5975267951722515      -0.7043769304160369
5.16E9                   -0.6554608137660505      -0.6504985394615048
5.19E9                   -0.7085062433897917      -0.5918844165802092
5.22E9                   -0.7562783548389483      -0.5289767654056863
5.25E9                   -0.79843233469771        -0.46224884813471445
5.28E9                   -0.8346657838641939      -0.39220138184077813
5.31E9                   -0.8647208864557445      -0.31935872960520656
5.34E9                   -0.8883862293629579      -0.24426492032205616
5.37E9                   -0.9054982591197785      -0.16747953401919513
5.4E9                    -0.9159423694869926      -0.0895734896166609
5.43E9                   -0.9196536184851557      -0.011124769372207754
5.46E9                   -0.9166170764396295      0.06728588891570553
5.49E9                   -0.9068678074017447      0.14507930393410556
5.52E9                   -0.8904904859248151      0.22168214008679357
5.55E9                   -0.8676186508684922      0.2965311467373236
5.58E9                   -0.8384335983921023      0.3690773186794183
5.61E9                   -0.8031629180471784      0.4387899469451709
5.64E9                   -0.7620786789861423      0.5051605270340277
5.67E9                   -0.7154952778028202      0.5677064902397488
5.7E9                    -0.6637669652350432      0.6259747236854561
5.73E9                   -0.6072850753118941      0.6795448467522761
5.76E9                   -0.5464749861453232      0.7280322163431747
5.79E9                   -0.4817928448635909      0.771090640215802
5.82E9                   -0.413722089151336       0.808414784671438
5.85E9                   -0.34276979479305525     0.8397422681170025
5.88E9                   -0.2694628748710864      0.8648554338306256
5.91E9                   -0.19434415391785756     0.8835827944488838
5.94E9                   -0.1179683406124239      0.8958001390424553
5.97E9                   -0.040897925074884434    0.9014312930678273
6.0E9                    0.03630096976391411      0.900448522871535
