% Model:              three_layers reality at 0.1mm.mph
% Version:            COMSOL 5.6.0.280
% Date:               Feb 26 2022, 13:34
% Table:              表格 1 - 全局计算 1
% freq (Hz)              real(emw.S11) (1)        imag(emw.S11) (1)
300000000                0.5949320128355943       -0.7324544078389428
330000000                0.5286041244754394       -0.780782086366064
360000000                0.4584719891984552       -0.8231943397695217
390000000                0.3850477671323802       -0.859387697267276
420000000                0.30887084303823653      -0.8891037546220031
450000000                0.23050304463947438      -0.9121314750610852
480000000                0.15052392569895706      -0.9283090389460336
510000000                0.06952606242450728      -0.9375252595827386
540000000                -0.011889654501278636    -0.9397205738508929
570000000                -0.09311872948195905     -0.9348876118379089
600000000                -0.17355775777393723     -0.9230713485515845
630000000                -0.25260908655053127     -0.9043688412001881
660000000                -0.32968541422471614     -0.878928556707802
690000000                -0.4042142987504671      -0.8469492963617363
720000000                -0.4756425448151747      -0.8086787266009257
750000000                -0.5434404382571846      -0.7644115277458321
780000000                -0.6071057967249532      -0.7144871750885868
810000000                -0.6661678056723541      -0.6592873698362309
840000000                -0.7201906107311521      -0.5992331396125578
870000000                -0.7687766381010817      -0.5347816314412865
900000000                -0.8115696168966672      -0.46642262247596666
930000000                -0.8482572796841814      -0.39467477592060457
960000000                -0.8785737194866061      -0.32008167222440026
990000000                -0.9023013846963969      -0.2432076470452782
1020000000               -0.919272695957122       -0.16463346954818803
1050000000               -0.9293712723257894      -0.08495189578688334
1080000000               -0.9325327572603261      -0.004763132987198095
1110000000               -0.9287452383196753      0.07532974863300573
1140000000               -0.918049257915011       0.15472541956926564
1170000000               -0.9005374158720232      0.23282887323059254
1200000000               -0.8763535680574119      0.3090559497886982
1230000000               -0.8456916286536507      0.3828377657182842
1260000000               -0.8087939870976059      0.45362501360674745
1290000000               -0.7659495536042558      0.5208920988441896
1320000000               -0.7174914506820959      0.5841410802108483
1350000000               -0.6637943703749833      0.6429053845350545
1380000000               -0.605271619989855       0.6967532667367765
1410000000               -0.5423718812340474      0.7452909894220092
1440000000               -0.475575709978638       0.788165698486866
1470000000               -0.40539180546445097     0.8250679741524145
1500000000               -0.3323530797924075      0.8557340393277413
1530000000               -0.25701255930017325     0.8799476105653032
1560000000               -0.1799391507159097      0.8975413796165207
1590000000               -0.10171330577725596     0.9083981166928853
1620000000               -0.022922618063241276    0.9124513897437755
1650000000               0.05584261395307451      0.9096858969986648
1680000000               0.1339938234334774       0.9001374130524724
1710000000               0.21094857832280278      0.8838923517637234
1740000000               0.2861349178486551       0.8610869520528912
1770000000               0.3589955909030833       0.8319060954137939
1800000000               0.42899216528672035      0.7965817666198768
1830000000               0.49560897852555397      0.755391171552103
1860000000               0.5583569023809603       0.7086545283683273
1890000000               0.6167768947297123       0.6567325504879405
1920000000               0.6704433145360377       0.6000236417479606
1950000000               0.7189669774720802       0.5389608259562423
1980000000               0.7619979318771194       0.474008434734057
2010000000               0.7992279371216782       0.4056585787655097
2040000000               0.8303926286323962       0.3344274289557088
2070000000               0.8552733564754036       0.26085133458300386
2100000000               0.8736986867684657       0.1854828061481086
2130000000               0.8855455576151947       0.1088863904021079
2.16E9                   0.890740083115166        0.03163446440616965
2.19E9                   0.8892579998020654       -0.04569702567956503
2.22E9                   0.8811247488247276       -0.12253285593644059
2.25E9                   0.8664151841124519       -0.1983028194868763
2.28E9                   0.8452528934100535       -0.2724459908464147
2.31E9                   0.8178091214298011       -0.3444149118041041
2.34E9                   0.7843013011265821       -0.4136796351479715
2.37E9                   0.7449912327741441       -0.4797315611780737
2.4E9                    0.7001829826134515       -0.5420870329570845
2.43E9                   0.650220569473494        -0.6002907099542075
2.46E9                   0.5954854575468504       -0.653918772433973
2.49E9                   0.5363938157975342       -0.7025819854663505
2.52E9                   0.4733934924459698       -0.74592859199958
2.55E9                   0.4069606900081162       -0.7836469642443719
2.58E9                   0.33759637263169023      -0.81546794549238
2.61E9                   0.2658224603609604       -0.8411668422388555
2.64E9                   0.19217786401016604      -0.8605650519974622
2.67E9                   0.11721440357282696      -0.873531325007402
2.7E9                    0.041492644385663274     -0.8799826608118502
2.73E9                   -0.03442231935985501     -0.8798848399466419
2.76E9                   -0.10996510518467542     -0.8732525900921853
2.79E9                   -0.1845742777383439      -0.860149386394303
2.82E9                   -0.25769654904621947     -0.8406868871875954
2.85E9                   -0.3287909128777246      -0.8150240086206104
2.88E9                   -0.39733268228374286     -0.7833656443845949
2.91E9                   -0.4628173997239846      -0.745961039523177
2.94E9                   -0.5247645896112362      -0.7031018302577399
2.97E9                   -0.5827213244079374      -0.6551197644109641
3.0E9                    -0.6362655763078225      -0.6023841199518283
3.03E9                   -0.6850093286074941      -0.5452988414691202
3.06E9                   -0.7286014223666231      -0.4842994170212358
3.09E9                   -0.7667301162990819      -0.41984951986441477
3.12E9                   -0.7991253400807639      -0.3524374416234618
3.15E9                   -0.825560623848345       -0.2825723451766386
3.18E9                   -0.8458546893749017      -0.21078036693122737
3.21E9                   -0.8598726911709917      -0.1376005994719748
3.24E9                   -0.8675270987638597      -0.06358098619827994
3.27E9                   -0.8687782142234893      0.010725839626386173
3.3E9                    -0.8636343219865918      0.08476673900293336
3.33E9                   -0.8521514708001026      0.15799224180085397
3.36E9                   -0.8344328904148739      0.22986067941655983
3.39E9                   -0.8106280483549437      0.29984224341429533
3.42E9                   -0.7809313548113015      0.367422938337314
3.45E9                   -0.7455805264244522      0.4321083976111876
3.48E9                   -0.7048546226830159      0.4934275319181901
3.51E9                   -0.6590717717078333      0.5509359805642909
3.54E9                   -0.6085866055018498      0.6042193376839599
3.57E9                   -0.5537874281577644      0.6528961271656524
3.6E9                    -0.4950931435322803      0.6966205032040733
3.63E9                   -0.4329499717461836      0.7350846567693271
3.66E9                   -0.3678279852976388      0.7680209127664819
3.69E9                   -0.3002174965087841      0.7952035067208055
3.72E9                   -0.23062532744178485     0.8164500340549936
3.75E9                   -0.15957099270763672     0.8316225683235402
3.78E9                   -0.08758282388289054     0.8406284477654996
3.81E9                   -0.015194062940197385    0.8434207316929103
3.84E9                   0.05706104987424876      0.8399983300227867
3.87E9                   0.1286511699675936       0.8304058102198186
3.9E9                    0.19905170172962308      0.8147328861765749
3.93E9                   0.26774858963909925      0.7931135932317546
3.96E9                   0.3342420246990816       0.765725153276621
3.99E9                   0.3980500425667886       0.7327865343456857
4.02E9                   0.4587119875809723       0.6945567109393491
4.05E9                   0.5157918156314228       0.6513326344600947
4.08E9                   0.5688812084786055       0.6034469272539421
4.11E9                   0.617602473380602        0.5512653180045407
4.14E9                   0.6616112043176288       0.4951838400624999
4.17E9                   0.7005986845154979       0.43562581720241145
4.2E9                    0.7342940138613472       0.37303866289558113
4.23E9                   0.7624659483256431       0.30789052010652807
4.26E9                   0.7849244419720858       0.24066676812937626
4.29E9                   0.8015218845119613       0.17186642251932605
4.32E9                   0.8121540292345941       0.10199845335206265
4.35E9                   0.8167606074188228       0.03157804640696852
4.38E9                   0.815325626258484        -0.03887716799216486
4.41E9                   0.8078773484840515       -0.10885089344120571
4.44E9                   0.7944879533060626       -0.17783192742019777
4.47E9                   0.7752728802580577       -0.24531787630293792
4.5E9                    0.7503898599076259       -0.31081879836632575
4.53E9                   0.7200376380727675       -0.3738607478038848
4.56E9                   0.6844544030836393       -0.43398919305225414
4.59E9                   0.6439159284646223       -0.49077228377635057
4.62E9                   0.5987334460401597       -0.5438039425079658
4.65E9                   0.5492512667777879       -0.5927067588037981
4.68E9                   0.4958441681539766       -0.63713466635644
4.71E9                   0.4389145676933419       -0.6767753856404769
4.74E9                   0.37888950260587945      -0.71135261641196
4.77E9                   0.3162174356690418       -0.7406279653662236
4.8E9                    0.251364908268668        -0.7644025945813404
4.83E9                   0.18481306329971972      -0.7825185766443066
4.86E9                   0.11705406328071125      -0.7948599433668598
4.89E9                   0.04858743199696907      -0.8013534172880059
4.92E9                   -0.020083649374119796    -0.8019688188290456
4.95E9                   -0.08845605955879937     -0.7967191467431408
4.98E9                   -0.15603043599623911     -0.7856603344925104
5.01E9                   -0.22231482527244018     -0.768890689770562
5.04E9                   -0.2868282584273123      -0.7465500277043491
5.07E9                   -0.3491042280253364      -0.7188185099605475
5.1E9                    -0.40869404718963365     -0.685915201868269
5.13E9                   -0.4651700725216717      -0.648096358330999
5.16E9                   -0.5181287728650542      -0.605653447575892
5.19E9                   -0.567193623527625       -0.5589109214135958
5.22E9                   -0.6120178029022364      -0.5082237423716566
5.25E9                   -0.6522866662268201      -0.45397468262548035
5.28E9                   -0.6877199719105451      -0.39657141563354137
5.31E9                   -0.7180738396921711      -0.33644342689398893
5.34E9                   -0.743142425905922       -0.2740387733595308
5.37E9                   -0.7627593073352634      -0.20982072085735493
5.4E9                    -0.776798569504784       -0.1442642861821022
5.43E9                   -0.7851755967992187      -0.07785270755482933
5.46E9                   -0.7878475614188988      -0.011073865038807596
5.49E9                   -0.7848136069842575      0.05558332732017018
5.52E9                   -0.7761147221407407      0.12163253401509065
5.55E9                   -0.7618333005345564      0.18659358896660555
5.58E9                   -0.7420923860326094      0.2499960357881654
5.61E9                   -0.7170546059585247      0.3113825862371695
5.64E9                   -0.6869207999018189      0.37031246489692826
5.67E9                   -0.6519283572409712      0.4263646083180051
5.7E9                    -0.612349282058805       0.4791406894839061
5.73E9                   -0.5684880089168084      0.528267942725516
5.76E9                   -0.5206789954017942      0.5734017704617698
5.79E9                   -0.4692841168898132      0.6142281191373269
5.82E9                   -0.4146898857239336      0.6504656159657828
5.85E9                   -0.35730451329257085     0.6818674588043715
5.88E9                   -0.29755483154487233     0.7082230495249682
5.91E9                   -0.23588309158198462     0.7293593586555791
5.94E9                   -0.17274366071038366     0.7451420079541217
5.97E9                   -0.10859964380242887     0.7554760592301598
6.0E9                    -0.04391945830767377     0.76030650165194
