% Model:              three_layers reality at 0.1mm.mph
% Version:            COMSOL 5.6.0.280
% Date:               Mar 2 2022, 09:46
% Table:              表格 1 - 全局计算 1
% freq (Hz)              real(emw.S11) (1)        imag(emw.S11) (1)
300000000                0.5905044478298533       -0.742539603761336
330000000                0.5225371177765356       -0.7908255372577848
360000000                0.45075642315422493      -0.832989694846689
390000000                0.37569531437028697      -0.8687273849916066
420000000                0.29791476149957713      -0.8977806699349302
450000000                0.21799868439591688      -0.9199409687896415
480000000                0.13654893468887455      -0.935051104884403
510000000                0.05418028584865873      -0.9430068409846668
540000000                -0.028484580233395108    -0.9437579266728133
570000000                -0.11082008332205576     -0.9373086725670243
600000000                -0.19220273445352626     -0.9237180613735296
630000000                -0.27201607894083707     -0.9030994041525173
660000000                -0.3496555646496492      -0.8756195504194886
690000000                -0.42453330264930955     -0.8414976622101353
720000000                -0.49608268759941654     -0.8010035641195663
750000000                -0.5637628436475163      -0.7544556840303821
780000000                -0.6270628623540279      -0.702218601941443
810000000                -0.6855057999796546      -0.6447002270793917
840000000                -0.7386524025673591      -0.582348626502322
870000000                -0.7861045290832267      -0.5156485312415112
900000000                -0.8275082453899515      -0.44511754831491085
930000000                -0.8625565636797599      -0.3713021100712902
960000000                -0.8909918053350974      -0.29477319418489834
990000000                -0.9126075682296281      -0.21612184937324744
1020000000               -0.9272502824279694      -0.1359545643341948
1050000000               -0.9348203421717103      -0.05488851795280158
1080000000               -0.9352728053949234      0.026453249439469747
1110000000               -0.9286176559436102      0.10744670439639617
1140000000               -0.914919627282719       0.18747168704549844
1170000000               -0.8942975904310764      0.26591673697272267
1200000000               -0.8669235125598006      0.3421838379790251
1230000000               -0.8330209963919257      0.4156930433270598
1260000000               -0.7928634140724329      0.4858869440104793
1290000000               -0.7467716526942788      0.5522349439876328
1320000000               -0.695111491718799       0.6142373086730867
1350000000               -0.6382906356579661      0.6714289548138392
1380000000               -0.5767554280114225      0.7233829525822607
1410000000               -0.5109872749770804      0.7697137133262326
1440000000               -0.44149880951329046     0.8100798394098838
1470000000               -0.3688298283058424      0.8441866155549227
1500000000               -0.2935430354480416      0.8717881244548478
1530000000               -0.21621962818761917     0.8926889725077803
1560000000               -0.13745476059338327     0.9067456150736732
1590000000               -0.05785292165603977     0.9138672738990874
1620000000               0.021976735247874937     0.9140164427113476
1650000000               0.10142507523491809      0.9072089803629123
1680000000               0.17988764055420373      0.8935137940507483
1710000000               0.2567692497211816       0.8730521183295384
1740000000               0.3314885023323475       0.845996398641585
1770000000               0.4034821562714839       0.8125687909385733
1800000000               0.4722093451415155       0.7730392917472986
1830000000               0.5371556056075492       0.7277235155228334
1860000000               0.5978366859680275       0.6769801385340037
1890000000               0.653802109181365        0.6212080308111774
1920000000               0.7046384659697854       0.560843099428838
1950000000               0.7499724154470155       0.4963548685353473
1980000000               0.7894733734330324       0.4282428228376687
2010000000               0.8228558709630864       0.3570325427059515
2040000000               0.8498815680827001       0.28327166015182625
2070000000               0.8703609107060967       0.2075256657502862
2100000000               0.8841544210670502       0.13037359675892143
2130000000               0.8911736147432046       0.052403637007912535
2.16E9                   0.8913815395917197       -0.02579134197019863
2.19E9                   0.8847929331909712       -0.10361826962346665
2.22E9                   0.8714739954431505       -0.18048836715257943
2.25E9                   0.8515417711229099       -0.25582161191745606
2.28E9                   0.8251631344986241       -0.32905114250564593
2.31E9                   0.7925533681969434       -0.39962756149153367
2.34E9                   0.7539743383657392       -0.4670230782168565
2.37E9                   0.7097322932160417       -0.5307354258913732
2.4E9                    0.6601753455400818       -0.5902915013820297
2.43E9                   0.605690716444228        -0.6452507188265525
2.46E9                   0.5467017925942826       -0.6952081148999724
2.49E9                   0.4836649931882576       -0.7397972527636194
2.52E9                   0.4170664022104495       -0.7786929313237806
2.55E9                   0.3474181302261684       -0.8116136523575993
2.58E9                   0.27525441300108183      -0.838323774367177
2.61E9                   0.20112749278417663      -0.8586352958774397
2.64E9                   0.12560334276736604      -0.8724092392502558
2.67E9                   0.04925729006065787      -0.8795566284940737
2.7E9                    -0.027330418269682966    -0.8800390646587746
2.73E9                   -0.10357906942699718     -0.8738689045098287
2.76E9                   -0.1789119271837704      -0.861109047683137
2.79E9                   -0.2527606308630581      -0.84187233717894
2.82E9                   -0.3245695195764438      -0.8163205789227889
2.85E9                   -0.3937998501135333      -0.7846631879584847
2.88E9                   -0.459933876444236       -0.7471554714835098
2.91E9                   -0.5224787598927816      -0.7040965615610375
2.94E9                   -0.580970279189957       -0.6558270135569448
2.97E9                   -0.6349763115796105      -0.6027260889595092
3.0E9                    -0.6841000574444456      -0.5452087441819429
3.03E9                   -0.7279829831236859      -0.4837223494113936
3.06E9                   -0.7663074588271584      -0.418743163957053
3.09E9                   -0.7987990710811641      -0.35077259672393035
3.12E9                   -0.8252285920440031      -0.2803332820449038
3.15E9                   -0.8454135907623883      -0.2079650029778565
3.18E9                   -0.8592196747569002      -0.13422049502117506
3.21E9                   -0.8665613533554302      -0.05966116429847051
3.24E9                   -0.8674025174836105      0.015147245342121772
3.27E9                   -0.8617565338099408      0.08963900159401679
3.3E9                    -0.8496859543027958      0.1632527148687574
3.33E9                   -0.8313018453094145      0.23543561717099568
3.36E9                   -0.8067627432299848      0.3056477551918061
3.39E9                   -0.7762732467038526      0.3733660649712974
3.42E9                   -0.7400822580130166      0.4380882964039022
3.45E9                   -0.6984808891224584      0.49933675709698966
3.48E9                   -0.6518000504742681      0.5566618464256767
3.51E9                   -0.6004077434331982      0.6096453521432577
3.54E9                   -0.5447060799515173      0.6579034839189017
3.57E9                   -0.4851280557139466      0.7010896204569034
3.6E9                    -0.42213410546631014     0.7388967496919784
3.63E9                   -0.35620847128090133     0.7710595848625612
3.66E9                   -0.28785541593583946     0.7973563429224343
3.69E9                   -0.21759531443245106     0.8176101755005647
3.72E9                   -0.14596065686626822     0.8316902463143117
3.75E9                   -0.07349199555660527     0.8395124524865338
3.78E9                   -7.338687453007254E-4    0.8410397905590096
3.81E9                   0.07176926794318099      0.8362823712951674
3.84E9                   0.14347707278681554      0.8252970904208337
3.87E9                   0.21385728483283178      0.8081869649834543
3.9E9                    0.28238960201228736      0.7851001465319913
3.93E9                   0.34856944875584883      0.7562286225904978
3.96E9                   0.41191161297289053      0.721806617213288
3.99E9                   0.4719537324517884       0.6821087004815766
4.02E9                   0.5282596096927062       0.6374476165488103
4.05E9                   0.580422332238271        0.588171841217297
4.08E9                   0.6280671743189512       0.5346628828244124
4.11E9                   0.6708542554519181       0.4773323441683343
4.14E9                   0.7084809330055173       0.4166187675359135
4.17E9                   0.7406839087676386       0.3529842884590762
4.2E9                    0.7672410333817358       0.2869111264739219
4.23E9                   0.7879727967382686       0.21889794236037485
4.26E9                   0.8027434963499079       0.14945609135248902
4.29E9                   0.8114620789246847       0.07910580110560994
4.32E9                   0.8140826527369427       0.008372302028045847
4.35E9                   0.8106046700094993       -0.06221806330706451
4.38E9                   0.8010727797297754       -0.1321417253652227
4.41E9                   0.7855763525444325       -0.20088174141572074
4.44E9                   0.7642486808551361       -0.2679315911988039
4.47E9                   0.7372658591962357       -0.3327988876453149
4.5E9                    0.7048453523074525       -0.3950089756043698
4.53E9                   0.6672442609805636       -0.45410839168499306
4.56E9                   0.6247572984809922       -0.509668159124637
4.59E9                   0.5777144931243399       -0.5612868926887491
4.62E9                   0.5264786350646065       -0.6085936904279641
4.65E9                   0.4714424876266472       -0.6512507911502085
4.68E9                   0.41302578507446874      -0.6889559790303112
4.71E9                   0.3516720398242676       -0.7214447191849435
4.74E9                   0.28784518248422053      -0.7484920103121282
4.77E9                   0.2220260584489333       -0.7699139420754022
4.8E9                    0.15470880512317128      -0.7855689460957298
4.83E9                   0.08639713488090416      -0.7953587302785079
4.86E9                   0.01760055054155103      -0.7992288873846499
4.89E9                   -0.051169477778565314    -0.797169170729248
4.92E9                   -0.11940334371982111     -0.7892134327936342
4.95E9                   -0.18659711152917657     -0.7754392263326898
4.98E9                   -0.2522562664106759      -0.7559670718121514
5.01E9                   -0.31589937676736135     -0.7309593993587469
5.04E9                   -0.377061638755887       -0.7006191773272987
5.07E9                   -0.4352982763276627      -0.6651882427204151
5.1E9                    -0.49018777309966866     -0.624945350718177
5.13E9                   -0.5413349156441698      -0.5802039612479399
5.16E9                   -0.5883736299464055      -0.5313097802298979
5.19E9                   -0.6309695937126241      -0.47863807243791057
5.22E9                   -0.6688226066984287      -0.4225907630013523
5.25E9                   -0.7016687001767684      -0.3635933462840359
5.28E9                   -0.7292819664501815      -0.30209162444426063
5.31E9                   -0.7514760911855944      -0.2385483024085621
5.34E9                   -0.7681055755542506      -0.17343946980770875
5.37E9                   -0.7790666409025919      -0.10725100197507186
5.4E9                    -0.7842978141644208      -0.040474911267758276
5.43E9                   -0.783780196193963       0.026394322738315747
5.46E9                   -0.7775374170598751      0.09286341865423596
5.49E9                   -0.7656352825956513      0.15844393110650526
5.52E9                   -0.7481811160733841      0.2226558384878961
5.55E9                   -0.7253227987294559      0.28503105781759835
5.58E9                   -0.6972475135768553      0.34511686251218826
5.61E9                   -0.6641801987136141      0.4024791774040948
5.64E9                   -0.6263817192669793      0.45670572393776193
5.67E9                   -0.5841467710528233      0.5074089879190012
5.7E9                    -0.5378015337604783      0.5542289828949685
5.73E9                   -0.48770109645902093     0.596835784690429
5.76E9                   -0.4342266821815064      0.6349318172193388
5.79E9                   -0.3777827002368831      0.6682538755391305
5.82E9                   -0.31879365395422643     0.6965748777925017
5.85E9                   -0.25770092867803174     0.7197053413343171
5.88E9                   -0.1949594816596104      0.7374945793887133
5.91E9                   -0.1310344539082122      0.7498316135995617
5.94E9                   -0.066397724753792       0.7566457966334368
5.97E9                   -0.001524431993457398    0.7579071390024255
6.0E9                    0.06311051683540185      0.7536263359236373
