% Model:              three_layers reality at 0.1mm.mph
% Version:            COMSOL 5.6.0.280
% Date:               Feb 25 2022, 16:40
% Table:              表格 1 - 全局计算 1
% freq (Hz)              real(emw.S11) (1)        imag(emw.S11) (1)
300000000                0.6009267426992271       -0.7296475098125385
330000000                0.5352475690037893       -0.7783570548581826
360000000                0.4657348097334808       -0.8212333567172234
390000000                0.3928930457797716       -0.8579721718505289
420000000                0.31725342698144204      -0.8883133520496577
450000000                0.23936918620708492      -0.9120430651829253
480000000                0.15981116530105535      -0.9289956060168438
510000000                0.07916331853744048      -0.9390548029464979
540000000                -0.001981812752542389    -0.9421550222716486
570000000                -0.0830276452443485      -0.9382817705885075
600000000                -0.1633781003564362      -0.9274718960223303
630000000                -0.24244212923262973     -0.9098133900344179
660000000                -0.31963818838274644     -0.8854447932156173
690000000                -0.3943986365737153      -0.8545542106907384
720000000                -0.4661740231306071      -0.8173779450006919
750000000                -0.5344372357830185      -0.7741987573436293
780000000                -0.5986874787686499      -0.725343769866396
810000000                -0.6584540497593028      -0.6711820256473159
840000000                -0.7132998876509717      -0.6121217245580066
870000000                -0.7628248634540461      -0.5486071562562822
900000000                -0.8066687882360637      -0.48111535442537473
930000000                -0.8445141148066142      -0.4101524978906672
960000000                -0.8760883115986691      -0.3362500870162081
990000000                -0.9011658898590194      -0.2599609256577712
1020000000               -0.9195700682999454      -0.18185494014646264
1050000000               -0.9311740620251414      -0.10251486860582462
1080000000               -0.9359019856776183      -0.022531855200927382
1110000000               -0.9337293641630086      0.05749901623085274
1140000000               -0.9246832473251608      0.13698321289831877
1170000000               -0.9088419283817825      0.21533123314458735
1200000000               -0.8863342693074115      0.2919630395243481
1230000000               -0.8573386393708443      0.36631241091749533
1260000000               -0.8220814766403377      0.4378311783395361
1290000000               -0.780835484811537       0.5059933124531821
1320000000               -0.7339174812962519      0.5702988302744469
1350000000               -0.6816859146862551      0.6302774917405426
1380000000               -0.6245380728527473      0.6854922577118487
1410000000               -0.5629070047262841      0.7355424839685806
1440000000               -0.4972581815462673      0.7800668274133413
1470000000               -0.4280859247419804      0.8187458437857876
1500000000               -0.35590962948001814     0.8513042585879864
1530000000               -0.2812698141107087      0.8775128958188081
1560000000               -0.2047240270513201      0.897190251888174
1590000000               -0.1268426429035417      0.9102037051825562
1620000000               -0.04820458081889587     0.9164703544858089
1650000000               0.030607022625034654     0.9159574825915766
1680000000               0.10900915257661091      0.9086826441566456
1710000000               0.1864232353055739       0.8947133798626112
1740000000               0.2622794054837915       0.8741665615973073
1770000000               0.3360206903640826       0.8472073761022648
1800000000               0.40710708074118274      0.8140479570653419
1830000000               0.47501945973854803      0.7749456780143611
1860000000               0.5392633616483234       0.7302011207973857
1890000000               0.5993725349910843       0.6801557363456278
1920000000               0.6549122851639186       0.6251892166218878
1950000000               0.7054825742508855       0.5657165981762786
1980000000               0.7507208569309534       0.5021851199124928
2010000000               0.790304634223908        0.43507085828726866
2040000000               0.8239537080704218       0.3648751653008251
2070000000               0.851432122353651        0.2921209353871113
2100000000               0.872549778177087        0.2173487280829184
2130000000               0.8871637132606204       0.14111277460254376
2.16E9                   0.8951790378157902       0.0639768966114239
2.19E9                   0.8965495214915216       -0.013489633880998214
2.22E9                   0.891277828334744        -0.09071626427352962
2.25E9                   0.8794153991036272       -0.16713533173960587
2.28E9                   0.8610619825594512       -0.24218620509367678
2.31E9                   0.8363648196792511       -0.3153193695455641
2.34E9                   0.8055174868703315       -0.386000426335643
2.37E9                   0.7687584063152514       -0.45371397990084816
2.4E9                    0.7263690331673911       -0.5179673863645073
2.43E9                   0.6786717307181679       -0.5782943376862455
2.46E9                   0.6260273454755954       -0.6342582563764305
2.49E9                   0.5688324952099597       -0.6854554748484816
2.52E9                   0.5075165848196654       -0.7315181718199261
2.55E9                   0.4425385695137749       -0.7721170355448423
2.58E9                   0.37438349352427525      -0.8069636228379254
2.61E9                   0.30355884305161285      -0.8358123884867358
2.64E9                   0.23059076052852562      -0.858462373015377
2.67E9                   0.1560201633247946       -0.8747585554349611
2.7E9                    0.08039879372229759      -0.88459288882055
2.73E9                   0.004285206602132341     -0.8879050312297198
2.76E9                   -0.0717593052809864      -0.8846827653724161
2.79E9                   -0.14717483852766264     -0.8749620838067167
2.82E9                   -0.22140702946320767     -0.8588269139928233
2.85E9                   -0.2939111842471281      -0.8364084686942594
2.88E9                   -0.36415634248199097     -0.8078842221615684
2.91E9                   -0.43162923254725927     -0.7734765236416461
2.94E9                   -0.49583808366572174     -0.7334508651557151
2.97E9                   -0.5563162649832861      -0.6881138222670059
3.0E9                    -0.612625725164347       -0.6378106871077602
3.03E9                   -0.664360208102544       -0.5829228134706105
3.06E9                   -0.7111482216167694      -0.5238646949398319
3.09E9                   -0.7526557373471165      -0.46108079874813374
3.12E9                   -0.7885886019099744      -0.39504217965380584
3.15E9                   -0.818694641212132       -0.32624290008409834
3.18E9                   -0.8427654421797226      -0.2551962844176524
3.21E9                   -0.8606377987755969      -0.1824310364781272
3.24E9                   -0.8721948116857302      -0.108487250906344
3.27E9                   -0.8773666341264404      -0.03391234946251456
3.3E9                    -0.8761308589894677      0.04074302588441487
3.33E9                   -0.868512545523789       0.11492913099580743
3.36E9                   -0.8545838867146227      0.1881012166910467
3.39E9                   -0.8344635213971385      0.2597235733707442
3.42E9                   -0.808315498050793       0.3292734918169212
3.45E9                   -0.7763478999391396      0.3962451101145378
3.48E9                   -0.7388111440035146      0.4601531173798199
3.51E9                   -0.6959959684541065      0.5205362865341023
3.54E9                   -0.6482311263260572      0.5769608100184868
3.57E9                   -0.5958808046837899      0.6290234138507927
3.6E9                    -0.5393417909781861      0.676354227820632
3.63E9                   -0.4790404100559818      0.7186193915084359
3.66E9                   -0.4154292566969748      0.7555233783918661
3.69E9                   -0.34898375003037985     0.7868110225786713
3.72E9                   -0.2801985370230461      0.8122692353664794
3.75E9                   -0.20958377295828648     0.8317284013213103
3.78E9                   -0.13766130741381347     0.8450634459799746
3.81E9                   -0.06496080443631183     0.8521945697625277
3.84E9                   0.007984174268317368     0.8530876449841979
3.87E9                   0.08064009404144273      0.8477542751449912
3.9E9                    0.152477350993615        0.8362515180531747
3.93E9                   0.2229741257925813       0.8186812767918168
3.96E9                   0.29162015890666737      0.7951893651616473
3.99E9                   0.3579204193711741       0.7659642570140619
4.02E9                   0.4213986401753477       0.7312355317044653
4.05E9                   0.48160069495185526      0.6912720306959268
4.08E9                   0.5380977930372239       0.6463797425897287
4.11E9                   0.5904894724056602       0.5968994356163472
4.14E9                   0.638406372608587        0.5432040575401424
4.17E9                   0.6815127720941402       0.48569592318579513
4.2E9                    0.7195088757753656       0.4248037099262867
4.23E9                   0.7521328398233895       0.36097928164612353
4.26E9                   0.7791625214649092       0.29469436248534553
4.29E9                   0.8004169426417033       0.22643708306310578
4.32E9                   0.815757458276012        0.15670842298234294
4.35E9                   0.8250886220438333       0.08601857461215927
4.38E9                   0.8283587450891482       0.014883253409757236
4.41E9                   0.8255601453186849       -0.056180020221896367
4.44E9                   0.8167290866465348       -0.1266556429335101
4.47E9                   0.8019454088678046       -0.19603362995227153
4.5E9                    0.7813318500840879       -0.2638132717789039
4.53E9                   0.7550530650477537       -0.3295067212071171
4.56E9                   0.7233143447287027       -0.39264248540761687
4.59E9                   0.6863600447530654       -0.45276879760867034
4.62E9                   0.6444717330920171       -0.5094568430299496
4.65E9                   0.5979660701484404       -0.5623038146182008
4.68E9                   0.5471924370067829       -0.6109357755000895
4.71E9                   0.4925303300221689       -0.6550103068606415
4.74E9                   0.434386541776585        -0.6942189221712591
4.77E9                   0.3731921497297311       -0.7282892310892632
4.8E9                    0.3093993348944835       -0.7569868384392732
4.83E9                   0.24347805324065136      -0.7801169657835602
4.86E9                   0.17591258319296213      -0.797525784609411
4.89E9                   0.10719797299474863      -0.8091014516739948
4.92E9                   0.03783641280023158      -0.814774838423344
4.95E9                   -0.031666442829352985    -0.8145199481535657
4.98E9                   -0.10080517523970052     -0.8083540165822071
5.01E9                   -0.16907829715825642     -0.7963372938907494
5.04E9                   -0.23599191533489858     -0.7785725089460036
5.07E9                   -0.30106333202629276     -0.7552040191858835
5.1E9                    -0.36382455742038183     -0.7264166525216519
5.13E9                   -0.42382570569038247     -0.6924342504835634
5.16E9                   -0.48063824849349496     -0.6535179246336629
5.19E9                   -0.5338581013998351      -0.6099640407990803
5.22E9                   -0.5831085206528591      -0.5621019477915032
5.25E9                   -0.6280427897707055      -0.5102914688252639
5.28E9                   -0.6683466774492786      -0.4549201747905654
5.31E9                   -0.7037406495479975      -0.39640045950902225
5.34E9                   -0.7339818192263836      -0.3351664378712297
5.37E9                   -0.7588656200927115      -0.27167068954104406
5.4E9                    -0.7782271888592345      -0.20638087260923382
5.43E9                   -0.7919424460423257      -0.1397762337227178
5.46E9                   -0.7999288660951449      -0.07234404281546453
5.49E9                   -0.8021459316222187      -0.00457598173482174
5.52E9                   -0.7985952697832149      0.06303548362419578
5.55E9                   -0.7893204723869163      0.13000071831547397
5.58E9                   -0.7744066043984303      0.19583649184698473
5.61E9                   -0.7539794085018149      0.26006948314478306
5.64E9                   -0.7282042157530144      0.32223969157650834
5.67E9                   -0.6972845740470726      0.38190373091742624
5.7E9                    -0.6614606069729936      0.4386379849645339
5.73E9                   -0.6210071159210367      0.4920416047738252
5.76E9                   -0.5762314385936824      0.5417393278026034
5.79E9                   -0.5274710783867215      0.5873840986103266
5.82E9                   -0.47509112164576        0.6286594706265488
5.85E9                   -0.4194814635149001      0.665281769312927
5.88E9                   -0.36105386642487974     0.6970020000116242
5.91E9                   -0.3002388776052845      0.7236074877008009
5.94E9                   -0.23748263221925658     0.7449232403817632
5.97E9                   -0.17324356794144027     0.7608130312382196
6.0E9                    -0.1079890751120411      0.7711801971510844
