% Model:              three_layers reality at 0.1mm.mph
% Version:            COMSOL 5.6.0.280
% Date:               Mar 11 2022, 15:01
% Table:              表格 1 - 全局计算 1
% freq (Hz)              real(emw.S11) (1)        imag(emw.S11) (1)
300000000                0.5602156480833872       -0.7528462385807024
330000000                0.48552974574890584      -0.7997059019072393
360000000                0.4104568004994009       -0.8392204351638498
390000000                0.3323152592984684       -0.8718255095196391
420000000                0.25171458318411377      -0.8972781920363069
450000000                0.16928930970726946      -0.9153887723761662
480000000                0.08569273298900414      -0.9260238560951353
510000000                0.0015909712019201551    -0.9291084930957099
540000000                -0.0823428770935145      -0.9246276124737783
570000000                -0.16543464520538453     -0.9126268171475973
600000000                -0.24701499668413662     -0.8932125610118284
630000000                -0.3264252766519876      -0.8665517285491005
660000000                -0.403023277337375       -0.8328706321003285
690000000                -0.4761888754308398      -0.7924534403511043
720000000                -0.5453294929425972      -0.7456400540829832
750000000                -0.6098853346578483      -0.6928234468350846
780000000                -0.6693343506995856      -0.6344464947813658
810000000                -0.723196877447449       -0.5709983218262814
840000000                -0.7710399077458594      -0.503010194147932
870000000                -0.8124809463671561      -0.4310510014958895
900000000                -0.8471914093226673      -0.3557223684088222
930000000                -0.8748995292062166      -0.2776534441855042
960000000                -0.895392735466209       -0.19749542249311858
990000000                -0.9085194827409506      -0.11591584761143797
1020000000               -0.9141905074354615      -0.03359276555270808
1050000000               -0.9123794993824387      0.04879121870427215
1080000000               -0.9031231823909057      0.13055491590696888
1110000000               -0.8865208045480966      0.21102449669174397
1140000000               -0.8627330465552023      0.2895393432096516
1170000000               -0.8319803631273972      0.36545774836039235
1200000000               -0.7945407794109842      0.4381624044068062
1230000000               -0.7507471705297603      0.5070656270790822
1260000000               -0.7009840582946087      0.5716142642713681
1290000000               -0.6456839638591186      0.631294244267968
1320000000               -0.5853233602132707      0.6856347224497484
1350000000               -0.5204182711091762      0.7342117924231379
1380000000               -0.45151956676709104     0.776651732385958
1410000000               -0.37920800754234585     0.8126337647458508
1440000000               -0.30408908927962064     0.8418923120950548
1470000000               -0.2267877430901276      0.86421873973641
1500000000               -0.1479429427347931      0.8794625804098571
1530000000               -0.06820227113681306     0.887532242610172
1560000000               0.011783503756083214     0.8883952091940253
1590000000               0.09136579597562343      0.8820777377905895
1620000000               0.16990346669256715      0.8686640789507813
1650000000               0.24676794514133676      0.8482952317402215
1680000000               0.3213481671879233       0.8211672597962327
1710000000               0.39305529613326606      0.7875291936211686
1740000000               0.46132719437016567      0.7476805472010525
1770000000               0.5256326182087566       0.7019684785552761
1800000000               0.5854751114955778       0.6507846252701387
1830000000               0.6403965769395707       0.5945616470923267
1860000000               0.6899805083452559       0.5337695073750188
1890000000               0.7338548686111797       0.4689115263315457
1920000000               0.771694602294879        0.4005202383851354
1950000000               0.8032237740604927       0.3291530853479398
1980000000               0.8282173262546731       0.25538797759715753
2010000000               0.8465024519010769       0.1798187535333882
2040000000               0.8579595805218116       0.1030505687279933
2070000000               0.8625229770116392       0.02569524347702462
2100000000               0.8601809547818302       -0.05163340135626676
2130000000               0.8509757064981742       -0.12832419212294316
2.16E9                   0.835002757143467        -0.20377320609820282
2.19E9                   0.8124100457133512       -0.2773883040405866
2.22E9                   0.7833966434135274       -0.3485935654874266
2.25E9                   0.7482111176158934       -0.4168336017524433
2.28E9                   0.7071495519371371       -0.4815777231992849
2.31E9                   0.6605532339385931       -0.5423239381388835
2.34E9                   0.6088060210442034       -0.5986027643326078
2.37E9                   0.552331394531074        -0.6499808339688358
2.4E9                    0.4915892065423245       -0.6960642754087781
2.43E9                   0.42707211932785544      -0.7365018511210837
2.46E9                   0.35930172834701574      -0.7709878221642685
2.49E9                   0.288824357450963        -0.7992644897821107
2.52E9                   0.2162065263172636       -0.8211243340957367
2.55E9                   0.14203013000095285      -0.8364116402686292
2.58E9                   0.06688744402598878      -0.8450235002703697
2.61E9                   -0.008623848554225155    -0.8469101398227527
2.64E9                   -0.08390538309780632     -0.8420746539309558
2.67E9                   -0.1583624580653515      -0.830572379385412
2.7E9                    -0.23140806054439925     -0.8125101724546028
2.73E9                   -0.3024668113090456      -0.7880457282627701
2.76E9                   -0.3709790847596466      -0.757386852402107
2.79E9                   -0.43640540569870484     -0.7207904406404272
2.82E9                   -0.4982310282649971      -0.678560932144562
2.85E9                   -0.5559704939017681      -0.6310481257726317
2.88E9                   -0.6091719692018294      -0.5786443805870966
2.91E9                   -0.6574212308479563      -0.5217812941659935
2.94E9                   -0.7003452324421691      -0.4609259657416102
2.97E9                   -0.7376152309923762      -0.3965769332779159
3.0E9                    -0.7689494678071537      -0.32925985146248643
3.03E9                   -0.7941154022220778      -0.25952296060798313
3.06E9                   -0.812931493851886       -0.18793238914674382
3.09E9                   -0.8252685274444027      -0.11506732945711354
3.12E9                   -0.8310504738023653      -0.0415151283411285
3.15E9                   -0.8302548824485808      0.03213366549877603
3.18E9                   -0.8229128048807968      0.10529025252821303
3.21E9                   -0.8091082517548961      0.17737248683229545
3.24E9                   -0.7889771921441624      0.24780968896622324
3.27E9                   -0.7627061078876368      0.31604732307920713
3.3E9                    -0.7305301207612461      0.3815514958679074
3.33E9                   -0.6927307145214063      0.44381323742789336
3.36E9                   -0.6496330777954685      0.5023525268671788
3.39E9                   -0.6016030973319773      0.5567220287000704
3.42E9                   -0.5490440341684156      0.606510509672967
3.45E9                   -0.4923929178725045      0.6513459095112094
3.48E9                   -0.4321166962730173      0.6908980429985866
3.51E9                   -0.36870817989451504     0.7248809150423735
3.54E9                   -0.3026818214028897      0.7530546349134927
3.57E9                   -0.23456937138281095     0.775226920173744
3.6E9                    -0.16491545166758004     0.7912541856242465
3.63E9                   -0.0942730871633156      0.8010422170907137
3.66E9                   -0.02319923582747503     0.804546434400818
3.69E9                   0.04774964569442837      0.8017717520296493
3.72E9                   0.11802196547251463      0.79277204921575
3.75E9                   0.18707525687131882      0.7776492639767376
3.78E9                   0.2543803069815615       0.7565521268946046
3.81E9                   0.31942512609095886      0.7296745512238023
3.84E9                   0.38171873253131583      0.6972536962138798
3.87E9                   0.44079472781207585      0.659567721059396
3.9E9                    0.49621463625848516      0.6169332484452582
3.93E9                   0.5475709829435351       0.5697025596741224
3.96E9                   0.5944900839244888       0.5182605480314351
3.99E9                   0.6366345253086462       0.46302146279080425
4.02E9                   0.6737053126541035       0.40442548231748676
4.05E9                   0.7054436807405434       0.342935158835041
4.08E9                   0.7316325642643076       0.2790317778965122
4.11E9                   0.7520977402356337       0.21321167147834325
4.14E9                   0.7667086603603143       0.14598251437308177
4.17E9                   0.7753789931712778       0.07785962273388877
4.2E9                    0.7780668913994045       0.009362264351144383
4.23E9                   0.7747749921300824       -0.05899001416283296
4.26E9                   0.7655501497454122       -0.12668103610513962
4.29E9                   0.7504828982604501       -0.19320160647050488
4.32E9                   0.7297066414822908       -0.2580530684199942
4.35E9                   0.7033965743493997       -0.3207507837512111
4.38E9                   0.6717683433137769       -0.38082751891089783
4.41E9                   0.635076454699362        -0.4378367224430826
4.44E9                   0.5936124370357735       -0.4913556832624365
4.47E9                   0.5477027586618102       -0.540988558521568
4.5E9                    0.49770649804117184      -0.5863692556955084
4.53E9                   0.4440127643137663       -0.6271641462447857
4.56E9                   0.3870378697376133       -0.6630745816968874
4.59E9                   0.3272222634281443       -0.6938391785962211
4.62E9                   0.2650272450746151       -0.7192358383136782
4.65E9                   0.2009314860644345       -0.7390834710998524
4.68E9                   0.1354273922518072       -0.7532434001863486
4.71E9                   0.06901734644556044      -0.761620429947486
4.74E9                   0.002209868975212892     -0.7641635707342436
4.77E9                   -0.0644842683172417      -0.760866420183387
4.8E9                    -0.1305559440659991      -0.7517672051276717
4.83E9                   -0.19550158017173713     -0.7369484892205169
4.86E9                   -0.258827003097108       -0.7165365495046138
4.89E9                   -0.32005125207187834     -0.690700422252753
4.92E9                   -0.3787103095485129      -0.6596506164606059
4.95E9                   -0.434360725211909       -0.6236374938503926
4.98E9                   -0.48658310033677127     -0.5829493174999855
5.01E9                   -0.5349853965556116      -0.5379099764880004
5.04E9                   -0.5792060319170805      -0.48887640048165193
5.07E9                   -0.6189167281312512      -0.43623568496456033
5.1E9                    -0.6538250757753262      -0.3804019543335479
5.13E9                   -0.6836767887463298      -0.3218129961239807
5.16E9                   -0.7082576260053285      -0.2609267039691228
5.19E9                   -0.7273949663031254      -0.19821736934681652
5.22E9                   -0.7409590299191021      -0.1341718607188182
5.25E9                   -0.7488637473364066      -0.06928572457658826
5.28E9                   -0.7510672771176115      -0.0040592368193818505
5.31E9                   -0.7475721731940596      0.061006571453698824
5.34E9                   -0.7384251974987602      0.1254138901928986
5.37E9                   -0.7237167706431977      0.18867208065644842
5.4E9                    -0.7035800542554862      0.25030156461840675
5.43E9                   -0.6781896643957989      0.3098376105342488
5.46E9                   -0.6477600248782907      0.36683397125365574
5.49E9                   -0.6125433798584196      0.4208663284523039
5.52E9                   -0.5728274946120718      0.4715355036393978
5.55E9                   -0.5289330809984184      0.518470402716246
5.58E9                   -0.4812109887759284      0.5613306707273983
5.61E9                   -0.4300392057387157      0.5998090434610929
5.64E9                   -0.3758197070681999      0.6336333935708505
5.67E9                   -0.31897518754386844     0.6625684773043348
5.7E9                    -0.2599456996366451      0.6864173920017334
5.73E9                   -0.19918520979553078     0.7050227511295947
5.76E9                   -0.1371580794656959      0.7182675735138889
5.79E9                   -0.0743354812448315      0.7260758711701428
5.82E9                   -0.01119177349828533     0.7284129134294836
5.85E9                   0.051799126775012284     0.7252851494023448
5.88E9                   0.11416732244025365      0.7167397860246996
5.91E9                   0.1754504162053234       0.7028640381163866
5.94E9                   0.23519685363512188      0.6837840817431343
5.97E9                   0.2929691068132675       0.6596637475943343
6.0E9                    0.348346690548313        0.6307029875236659
