% Model:              three_layers reality at 0.1mm.mph
% Version:            COMSOL 5.6.0.280
% Date:               Feb 23 2022, 20:07
% Table:              表格 1 - 全局计算 1
% freq (Hz)              real(emw.S11) (1)        imag(emw.S11) (1)
300000000                0.44938782953059064      -0.7270763694414053
330000000                0.3758109413188283       -0.7645239539030105
360000000                0.2993352748753374       -0.7947622030034193
390000000                0.22063301396717333      -0.817559122738535
420000000                0.14040147378928314      -0.8327486760115406
450000000                0.05935463315856868      -0.8402326564651308
480000000                -0.021784821207772434    -0.8399817914182809
510000000                -0.10229310199632505     -0.8320361004257931
540000000                -0.18145264999589283     -0.8165045329536776
570000000                -0.2585592018413538      -0.793563908485706
600000000                -0.33292858494391375     -0.7634571843806448
630000000                -0.40390321199516743     -0.7264910798222431
660000000                -0.4708582378219755      -0.6830330881220886
690000000                -0.5332073376233993      -0.6335079138234971
720000000                -0.5904080644649085      -0.5783933753023734
750000000                -0.6419667450486735      -0.5182158177002781
780000000                -0.6874428748778177      -0.45354508518402237
810000000                -0.7264529780330166      -0.38498910489524285
840000000                -0.7586739009292333      -0.3131881381172772
870000000                -0.7838455143592848      -0.23880875707073124
900000000                -0.8017728037990122      -0.16253760758789249
930000000                -0.81232733364416        -0.08507501944044214
960000000                -0.8154480770018019      -0.007128527169958189
990000000                -0.8111416088754244      0.07059363577869973
1020000000               -0.7994816666290847      0.14738900692062526
1050000000               -0.7806080877439188      0.22256726721404818
1080000000               -0.754725140751623       0.2954564562102394
1110000000               -0.7220992709760146      0.36540897219838486
1140000000               -0.6830562880781045      0.4318073026417934
1170000000               -0.6379780275819217      0.4940694331344395
1200000000               -0.5872985230831503      0.5516538873993341
1230000000               -0.5314997302481695      0.6040643545767967
1260000000               -0.47110684732603403     0.6508538649765959
1290000000               -0.4066832802250964      0.6916284801632987
1320000000               -0.3388253028541335      0.7260504684869113
1350000000               -0.26815646561549855     0.7538409424421737
1380000000               -0.19532180648584135     0.7747819397412863
1410000000               -0.12098192012487595     0.7887179355023826
1440000000               -0.04580694099351401     0.7955567784580464
1470000000               0.029529503757174603     0.7952700496429976
1500000000               0.10435631639847785      0.7878928473475042
1530000000               0.17801087167011503      0.7735230074033907
1560000000               0.24984482837308342      0.7523197728933722
1590000000               0.31922975911755497      0.7245019321876861
1620000000               0.38556255041948956      0.690345448753822
1650000000               0.4482705282463473       0.6501806104073623
1680000000               0.5068162673260252       0.6043887295996896
1710000000               0.5607020462395348       0.5533984298644358
1740000000               0.6094739142210739       0.49768155674747583
1770000000               0.6527253398044555       0.43774875433052207
1800000000               0.6901004160945288       0.37414475078430753
1830000000               0.721296602179351        0.3074433983759587
1860000000               0.7460669855464875       0.23824251461116425
1890000000               0.7642220558317455       0.1671585720383199
1920000000               0.7756309863429461       0.09482128407646771
1950000000               0.7802224262800532       0.0218681329607237
1980000000               0.7779848135039625       -0.051061116960092745
2010000000               0.7689662248746576       -0.1233298829389413
2040000000               0.7532737876448081       -0.19431017605779713
2070000000               0.7310726795325743       -0.26338794797987597
2100000000               0.7025847429350087       -0.3299683796677835
2130000000               0.6680867234005693       -0.39348114763993725
2.16E9                   0.6279081027546817       -0.45338573375776303
2.19E9                   0.5824284192825075       -0.5091768609785279
2.22E9                   0.5320738434655058       -0.5603901034759716
2.25E9                   0.4773126310214137       -0.6066075733135892
2.28E9                   0.41864900096433094      -0.6474632633776308
2.31E9                   0.3566151833243721       -0.6826471466481415
2.34E9                   0.29176206872498195      -0.7119067472797236
2.37E9                   0.2246500141702077       -0.7350451481568554
2.4E9                    0.1558422161051336       -0.7519157399205851
2.43E9                   0.08590252401241401      -0.7624160113482242
2.46E9                   0.015397306209062834     -0.7664837348338759
2.49E9                   -0.05510151004394288     -0.7640976605244512
2.52E9                   -0.12501566250925206     -0.7552820377424868
2.55E9                   -0.19376373119503026     -0.7401122470427395
2.58E9                   -0.26076763214244386     -0.7187188934937041
2.61E9                   -0.3254606099056096      -0.6912891598695614
2.64E9                   -0.3872950922003655      -0.6580656083223082
2.67E9                   -0.4457495415155349      -0.6193432425446245
2.7E9                    -0.5003341078053993      -0.5754656263780377
2.73E9                   -0.5505952282209873      -0.5268205851135142
2.76E9                   -0.5961194059947438      -0.4738357535127999
2.79E9                   -0.636536364036325       -0.4169740667995228
2.82E9                   -0.6715217008967574      -0.3567292098505038
2.85E9                   -0.7007991177542362      -0.29362101291985687
2.88E9                   -0.7241422452659245      -0.2281907817593059
2.91E9                   -0.7413760762261741      -0.16099655937927582
2.94E9                   -0.7523779988516024      -0.09260832801184049
2.97E9                   -0.757078421780435       -0.023603169800712528
3.0E9                    -0.7554609824535246      0.04543958759741559
3.03E9                   -0.7475623334846463      0.11394320875544778
3.06E9                   -0.7334715059270492      0.18133833631298993
3.09E9                   -0.7133288532755082      0.24706768796405623
3.12E9                   -0.6873245851556006      0.31059062739611065
3.15E9                   -0.6556969044480436      0.3713875735131269
3.18E9                   -0.6187297656571265      0.42896421479367863
3.21E9                   -0.5767502750303174      0.4828554993910478
3.24E9                   -0.5301257540128813      0.5326293753463437
3.27E9                   -0.47926048689468204     0.5778902586339839
3.3E9                    -0.4245921713560824      0.6182822084571886
3.33E9                   -0.36658808796391096     0.6534917885175195
3.36E9                   -0.30574100270512583     0.6832505895971064
3.39E9                   -0.24256481698027185     0.7073373828099019
3.42E9                   -0.17758998356622904     0.7255798653589589
3.45E9                   -0.11135871613201315     0.7378559532129052
3.48E9                   -0.04442003429649635     0.7440945703994211
3.51E9                   0.02267529461230975      0.7442758854247733
3.54E9                   0.0893798346381935       0.7384309546529825
3.57E9                   0.15515447928051387      0.7266407519069974
3.6E9                    0.21947325470234988      0.7090345922461981
3.63E9                   0.2818278139219178       0.6857879919057401
3.66E9                   0.34173152124126815      0.657120039315291
3.69E9                   0.39872305051511586      0.6232903777419778
3.72E9                   0.4523694508133126       0.5845959153962202
3.75E9                   0.5022686634543059       0.5413673853883157
3.78E9                   0.5480515045457214       0.49396587949187076
3.81E9                   0.5893831607648427       0.4427794773484357
3.84E9                   0.6259642868804086       0.38822008082401677
3.87E9                   0.6575318379054483       0.3307205313730719
3.9E9                    0.683859802641425        0.270732029028152
3.93E9                   0.704760008329188        0.20872179052810347
3.96E9                   0.7200831235844579       0.14517080184617173
3.99E9                   0.7297199009959212       0.08057146660597117
4.02E9                   0.7336025940032749       0.015424949825212173
4.05E9                   0.7317063882418428       -0.049761929197405894
4.08E9                   0.7240506348429726       -0.1144803067101476
4.11E9                   0.7106996753367998       -0.17822333473691943
4.14E9                   0.6917630985155694       -0.24049055505273775
4.17E9                   0.6673953486362181       -0.3007924052491988
4.2E9                    0.6377946870469288       -0.35865467399967454
4.23E9                   0.6032015747457422       -0.41362275721659797
4.26E9                   0.5638965791501239       -0.4652656212898649
4.29E9                   0.5201979121043777       -0.5131794358665281
4.32E9                   0.47245868449278633      -0.5569908814742341
4.35E9                   0.4210639284685618       -0.5963601577940064
4.38E9                   0.366427405222796        -0.6309837163607008
4.41E9                   0.3089881952338157       -0.6605967234858904
4.44E9                   0.24920706322810846      -0.6849752357868858
4.47E9                   0.18756259999285696      -0.7039380510211082
4.5E9                    0.1245471618302032       -0.7173481869097995
4.53E9                   0.060662649688879536     -0.7251139416645013
4.56E9                   -0.0035838113134628816   -0.7271895009533983
4.59E9                   -0.06768421861973942     -0.7235750746630697
4.62E9                   -0.13113398788609115     -0.7143165701757468
4.65E9                   -0.19343612700443505     -0.6995048331182202
4.68E9                   -0.25410523604847723     -0.6792745061564601
4.71E9                   -0.3126713074615004      -0.6538025648814082
4.74E9                   -0.36868332888762806     -0.6233065823550478
4.77E9                   -0.4217127102557213      -0.5880427508396432
4.8E9                    -0.4713565578811887      -0.5483036583176937
4.83E9                   -0.5172407991242995      -0.5044157913250812
4.86E9                   -0.5590231279022139      -0.45673672652442426
4.89E9                   -0.5963957070206941      -0.4056519867424888
4.92E9                   -0.6290875409152576      -0.35157156948200874
4.95E9                   -0.6568664301950125      -0.29492619730301955
4.98E9                   -0.6795404386099078      -0.23616337827761133
5.01E9                   -0.6969588395992654      -0.1757433913131664
5.04E9                   -0.7090125562610425      -0.11413531878741452
5.07E9                   -0.7156341562641004      -0.05181323405453871
5.1E9                    -0.7167975008292542      0.010747386226949252
5.13E9                   -0.7125171622256676      0.07307300966434618
5.16E9                   -0.702847707643778       0.1346951985572393
5.19E9                   -0.6878828982877581      0.19515364746197825
5.22E9                   -0.6677547852808803      0.2539991967363264
5.25E9                   -0.6426326260467298      0.3107968710928965
5.28E9                   -0.6127215251711843      0.365128922154562
5.31E9                   -0.5782607355179112      0.4165977862037978
5.34E9                   -0.5395216249910091      0.4648288375465578
5.37E9                   -0.49680538767303184     0.5094728400020364
5.4E9                    -0.4504406196351809      0.5502080624650869
5.43E9                   -0.4007808725398168      0.5867420980380301
5.46E9                   -0.348202249590283       0.6188134781055562
5.49E9                   -0.2931010420747646      0.6461931855521212
5.52E9                   -0.23589134591881475     0.6686861462083398
5.55E9                   -0.1770025629800875      0.6861327277528805
5.58E9                   -0.11687668682985493     0.6984102171330225
5.61E9                   -0.05596529518233595     0.7054341947049135
5.64E9                   0.005273784241232704     0.7071596854897885
5.67E9                   0.0663801078063365       0.7035819533463578
5.7E9                    0.12689445861017035      0.6947368199984914
5.73E9                   0.1863627535152384       0.6807004413524874
5.76E9                   0.24433985102028474      0.6615885503505918
5.79E9                   0.30039312558232273      0.6375552542826521
5.82E9                   0.35410574601317624      0.6087915213914661
5.85E9                   0.4050796800844005       0.5755234838121531
5.88E9                   0.45293850473936426      0.5380106267957314
5.91E9                   0.4973301075244706       0.4965438595895016
5.94E9                   0.5379293255151183       0.45144340817600953
5.97E9                   0.5744405097346726       0.4030564539887431
6.0E9                    0.6065999533881694       0.3517544621743534
