% Model:              three_layers reality at 0.1mm.mph
% Version:            COMSOL 5.6.0.280
% Date:               Mar 9 2022, 15:15
% Table:              表格 1 - 全局计算 1
% freq (Hz)              real(emw.S11) (1)        imag(emw.S11) (1)
300000000                0.580444489754153        -0.7689022934182986
330000000                0.5077880637610672       -0.8176742255414352
360000000                0.4311810083341312       -0.8596729496912183
390000000                0.351230916092514        -0.8945828924014135
420000000                0.26857178991480135      -0.922141382788233
450000000                0.1838631074305237       -0.9421398441136728
480000000                0.09778291493604262      -0.954427454187885
510000000                0.011022431470969174     -0.9589133343643962
540000000                -0.07571955414557774     -0.9555681146404558
570000000                -0.16174243635573424     -0.9444248886206902
600000000                -0.24634963596255874     -0.925579564821584
630000000                -0.3288544773094333      -0.899190619436131
660000000                -0.4085860425746873      -0.8654782561539793
690000000                -0.48489494686841894     -0.8247229803702499
720000000                -0.5571589771599793      -0.7772635988415788
750000000                -0.6247885384863956      -0.7234946594908354
780000000                -0.6872318506813038      -0.663863352043147
810000000                -0.7439798409887599      -0.5988658948619904
840000000                -0.7945706798919357      -0.5290434392577515
870000000                -0.8385939098828447      -0.4549775282519959
900000000                -0.8756941207044705      -0.37728515302123095
930000000                -0.9055741295800047      -0.296613454118747
960000000                -0.927997629744777       -0.21363412076121363
990000000                -0.9427912765884496      -0.12903754487931493
1020000000               -0.9498461874303352      -0.043526790319355614
1050000000               -0.9491188379786983      0.042188560272120056
1080000000               -0.9406313455697308      0.1273986154626511
1110000000               -0.9244711372951357      0.21139937771013578
1140000000               -0.9007900083320424      0.29349887302289485
1170000000               -0.8698025833690256      0.37302314422320687
1200000000               -0.8317842015235064      0.4493220457906952
1230000000               -0.7870682514172036      0.5217747831871313
1260000000               -0.7360429900067896      0.589795140825909
1290000000               -0.6791478836034706      0.652836350779936
1320000000               -0.6168695155799182      0.71039555629612
1350000000               -0.5497371080568415      0.7620178330420064
1380000000               -0.4783177090185154      0.8072997353516138
1410000000               -0.4032110981145695      0.8458923418511648
1440000000               -0.32504446683654253     0.8775037808314323
1470000000               -0.24446692756092256     0.9019012233147446
1500000000               -0.16214390788053967     0.9189123366731291
1530000000               -0.07875148409901095     0.928426198707887
1560000000               0.005029293164346882     0.9303936772916155
1590000000               0.0885180304362855       0.9248272860079537
1620000000               0.17104053251248175      0.9118005309693467
1650000000               0.2519342081613152       0.8914467680837896
1680000000               0.33055329937404815      0.8639575936733813
1710000000               0.4062738963292869       0.8295807943907869
1740000000               0.47849870433336084      0.788617884793697
1770000000               0.5466615327437747       0.7414212628334442
1800000000               0.6102314792759131       0.6883910150525253
1830000000               0.6687167871804007       0.6299714040748714
1860000000               0.7216683559902002       0.5666470716029067
1890000000               0.7686828897346332       0.4989389904796213
1920000000               0.8094056698620936       0.42740019892603853
1950000000               0.8435329423894505       0.352611350382155
1980000000               0.8708139120152993       0.2751761110889707
2010000000               0.8910523374626614       0.19571643801392274
2040000000               0.9041077251724187       0.11486776802157937
2070000000               0.9098961198006983       0.03327414934486641
2100000000               0.9083904920493379       -0.048416654328836864
2130000000               0.8996207260031763       -0.12955805838464143
2.16E9                   0.8836732095847183       -0.2095095206243953
2.19E9                   0.86069003352331         -0.28764134597601937
2.22E9                   0.830867805685816        -0.3633394049040162
2.25E9                   0.7944560891552861       -0.4360097390169669
2.28E9                   0.7517554738887008       -0.5050830288539369
2.31E9                   0.7031152926363504       -0.5700189004540468
2.34E9                   0.6489309918996302       -0.6303100495625897
2.37E9                   0.589641167456279        -0.6854861642071981
2.4E9                    0.5257242693606522       -0.7351176287355665
2.43E9                   0.45769497504342954      -0.7788189896502562
2.46E9                   0.38610021902265007      -0.8162521561501199
2.49E9                   0.31151486172194254      -0.8471292877009953
2.52E9                   0.23453698633907047      -0.8712152882486939
2.55E9                   0.1557828489775604       -0.8883297891457164
2.58E9                   0.07588158285267035      -0.8983484883726057
2.61E9                   -0.004530146517139322    -0.9012037633504248
2.64E9                   -0.08481328618479439     -0.8968846083510563
2.67E9                   -0.16433116097921766     -0.8854361129133008
2.7E9                    -0.24245387574155847     -0.8669587724630579
2.73E9                   -0.3185625765667386      -0.841607816191126
2.76E9                   -0.39205384809391675     -0.8095925068932435
2.79E9                   -0.4623443920834451      -0.7711751819713789
2.82E9                   -0.5288759283755503      -0.726669781595968
2.85E9                   -0.5911201258377408      -0.6764397204214112
2.88E9                   -0.6485833539435788      -0.6208950959266485
2.91E9                   -0.7008111019196734      -0.560489312994135
2.94E9                   -0.7473919811170413      -0.4957152292608168
2.97E9                   -0.7879612734020821      -0.4271009152151418
3.0E9                    -0.8222040111522024      -0.3552051022998137
3.03E9                   -0.84985758081308        -0.28061237596228505
3.06E9                   -0.8707138417826452      -0.20392816170627498
3.09E9                   -0.8846207510886842      -0.12577354944449212
3.12E9                   -0.8914834847037266      -0.046780001758349676
3.15E9                   -0.8912650483884287      0.03241600651273016
3.18E9                   -0.8839863747777552      0.11117836821538474
3.21E9                   -0.8697259082470681      0.18887669297191234
3.24E9                   -0.848618684465648       0.2648915754912586
3.27E9                   -0.8208549170179135      0.3386197332079155
3.3E9                    -0.7866781088595631      0.40947896582984245
3.33E9                   -0.7463827112940744      0.4769128913809919
3.36E9                   -0.700311357805406       0.5403954165006082
3.39E9                   -0.6488517039661282      0.59943490245021
3.42E9                   -0.5924329084357781      0.6535779917614305
3.45E9                   -0.5315217930030033      0.7024130649720643
3.48E9                   -0.46661872215812494     0.7455733013128303
3.51E9                   -0.39825324506212056     0.7827393215711731
3.54E9                   -0.326979543814797       0.8136413967327343
3.57E9                   -0.25337173352158093     0.8380612104330112
3.6E9                    -0.17801905944517848     0.8558331688926002
3.63E9                   -0.10152103639835648     0.8668452568569713
3.66E9                   -0.024482574490811083    0.8710394431660449
3.69E9                   0.05249086718266334      0.8684116443484305
3.72E9                   0.12879805950137654      0.8590112584343341
3.75E9                   0.20384667939367276      0.8429402843596674
3.78E9                   0.2770578504798589       0.820352044068067
3.81E9                   0.34787051863203633      0.7914495252894973
3.84E9                   0.4157456346760089       0.7564833631941648
3.87E9                   0.48017011691212697      0.7157494794274764
3.9E9                    0.5406605657269793       0.6695863982794297
3.93E9                   0.5967667017865058       0.6183722624887008
3.96E9                   0.6480744990034236       0.5625215758680537
3.99E9                   0.6942089853569868       0.5024817061146519
4.02E9                   0.7348366891480453       0.43872918813271256
4.05E9                   0.769667717070216        0.37176587328025135
4.08E9                   0.7984574611455102       0.30211497225658357
4.11E9                   0.8210079438492106       0.23031703548802318
4.14E9                   0.8371688195573296       0.15692590633984366
4.17E9                   0.846838053883483        0.08250467053680594
4.2E9                    0.8499622991149416       0.007621614315551469
4.23E9                   0.8465369758859755       -0.06715380215629815
4.26E9                   0.8366060627327813       -0.14125494881398978
4.29E9                   0.8202615905654945       -0.214121994548404
4.32E9                   0.7976428400174775       -0.2852058218683917
4.35E9                   0.7689352445151283       -0.35397186573824624
4.38E9                   0.7343690069151603       -0.41990385627602117
4.41E9                   0.6942174392134064       -0.48250744997087835
4.44E9                   0.6487950320288391       -0.5413137381234122
4.47E9                   0.5984552553215251       -0.5958826212967347
4.5E9                    0.543588086906646        -0.6458060346505182
4.53E9                   0.4846172642562845       -0.6907110012246035
4.56E9                   0.4219972586362296       -0.7302624824095649
4.59E9                   0.35620997833138335      -0.7641659890675697
4.62E9                   0.287761217622411        -0.7921699149615984
4.65E9                   0.21717687829482968      -0.8140675564865865
4.68E9                   0.14499899882176612      -0.8296987887365866
4.71E9                   0.07178163165104455      -0.8389513765149534
4.74E9                   -0.0019133893365435028   -0.8417619081941873
4.77E9                   -0.07552075118039454     -0.8381163487684126
4.8E9                    -0.14847599899258732     -0.8280502140878717
4.83E9                   -0.22021987805882928     -0.8116483701687335
4.86E9                   -0.29020265526588507     -0.7890444601656958
4.89E9                   -0.35788839478277706     -0.7604199586193805
4.92E9                   -0.4227591606203926      -0.7260028502879905
4.95E9                   -0.48431911390748716     -0.6860659309903306
4.98E9                   -0.5420984678634924      -0.6409247309776177
5.01E9                   -0.5956572597380979      -0.5909350669232695
5.04E9                   -0.6445888971092688      -0.5364902357439487
5.07E9                   -0.6885234363838363      -0.47801787118352357
5.1E9                    -0.7271305539157796      -0.4159764917204338
5.13E9                   -0.760122174614978       -0.35085177572649784
5.16E9                   -0.7872547300890101      -0.28315260553338445
5.19E9                   -0.8083310270151302      -0.21340692566612823
5.22E9                   -0.8232017159803995      -0.14215746018274555
5.25E9                   -0.8317663587421272      -0.06995732985192367
5.28E9                   -0.8339740954756407      0.0026343963510829793
5.31E9                   -0.8298239123974991      0.07505718667776162
5.34E9                   -0.8193645057219066      0.14675354148687303
5.37E9                   -0.8026937340677759      0.2171734661073196
5.4E9                    -0.7799576516473365      0.28577888271629687
5.43E9                   -0.7513491202370715      0.35204793434679377
5.46E9                   -0.7171060079212448      0.4154791294527546
5.49E9                   -0.6775089944100372      0.47559527526371553
5.52E9                   -0.6328790139286905      0.5319471524319516
5.55E9                   -0.5835743758748323      0.5841168911371772
5.58E9                   -0.5299876099224149      0.6317210188680882
5.61E9                   -0.47254208509286155     0.6744131621510161
5.64E9                   -0.4116884509619517      0.7118863967839755
5.67E9                   -0.3479009421059438      0.743875252362425
5.7E9                    -0.28167357542294325     0.7701573827759951
5.73E9                   -0.21351625708139377     0.7905549123944207
5.76E9                   -0.1439508076416777      0.8049354573555159
5.79E9                   -0.07350691613384441     0.8132128073276226
5.82E9                   -0.0027180468462850273   0.8153472440637218
5.85E9                   0.06788265892272848      0.8113454757104599
5.88E9                   0.13776643064725055      0.8012601813579263
5.91E9                   0.20641280889707136      0.7851891816211598
5.94E9                   0.27331343235763267      0.7632742688896226
5.97E9                   0.337975643376514        0.7356997388252834
6.0E9                    0.3999259004279429       0.7026906622870714
