% Model:              three_layers reality at 0.1mm.mph
% Version:            COMSOL 5.6.0.280
% Date:               Mar 8 2022, 21:45
% Table:              表格 1 - 全局计算 1
% freq (Hz)              real(emw.S11) (1)        imag(emw.S11) (1)
300000000                0.5628697964452523       -0.7545031558495422
330000000                0.49176139359236654      -0.8010794744327279
360000000                0.4169492534112387       -0.841114098766237
390000000                0.3390110792870369       -0.8743022322251296
420000000                0.2585476352987476       -0.9003933010130615
450000000                0.17618674680746463      -0.9191890277574887
480000000                0.0925757281930725       -0.9305471153141914
510000000                0.008375476513601755     -0.9343832849658344
540000000                -0.07574533480489283     -0.9306726574056067
570000000                -0.1591160636594262      -0.919450542301931
600000000                -0.2410698944878539      -0.9008126528780154
630000000                -0.3209495947022458      -0.8749147563720172
660000000                -0.3981131982749546      -0.8419717676384751
690000000                -0.47193957545429516     -0.8022562947407454
720000000                -0.5418338446448535      -0.7560966466363778
750000000                -0.6072325776546729      -0.7038743187967577
780000000                -0.6676087519506655      -0.6460209746291751
810000000                -0.7224764002784012      -0.583014947912479
840000000                -0.7713949112667011      -0.5153772956814581
870000000                -0.8139729358802019      -0.4436674365038731
900000000                -0.8498718581352709      -0.36847841419525285
930000000                -0.8788087921453646      -0.29043183219863244
960000000                -0.9005590722311028      -0.21017250837451967
990000000                -0.9149582087284686      -0.12836290308750667
1020000000               -0.9219032875829511      -0.045677377608359056
1050000000               -0.9213537985788136      0.03720365848551348
1080000000               -0.9133318837456628      0.1195996505086791
1110000000               -0.8979220044285491      0.2008357913225019
1140000000               -0.87527003254948        0.28024884265344996
1170000000               -0.845581778547158       0.3571928253762391
1200000000               -0.8091209749619838      0.43104452187194386
1230000000               -0.7662067412081399      0.5012087351448353
1260000000               -0.7172105607638803      0.567123254354842
1290000000               -0.6625528072474051      0.6282634801378927
1320000000               -0.6026988601727185      0.6841466685376805
1350000000               -0.5381548557173667      0.7343357567720796
1380000000               -0.4694631200903439      0.7784427410607826
1410000000               -0.3971973354361309      0.8161315820022953
1440000000               -0.32195749036929433     0.8471206189087962
1470000000               -0.24436466659324696     0.8711844810725813
1500000000               -0.1650557145128314      0.8881554891386124
1530000000               -0.08467786803076152     0.8979245461303353
1560000000               -0.003883349301566419    0.9004415222198278
1590000000               0.07667598962236291      0.8957151428040737
1620000000               0.15635394240071498      0.8838123936095572
1650000000               0.2345150993899413       0.8648574604739319
1680000000               0.31053983410438324      0.8390302251218759
1710000000               0.3838290900644296       0.8065643407751548
1740000000               0.45380893483849616      0.767744914228283
1770000000               0.5199348530611697       0.7229058224447655
1800000000               0.5816957523471992       0.6724266937399457
1830000000               0.6386176606875473       0.6167295838852878
1860000000               0.6902670960338639       0.5562753788563446
1890000000               0.7362540928857855       0.49155995537148506
1920000000               0.7762348725315409       0.4231101314738475
1950000000               0.8099141472965443       0.351479437968472
1980000000               0.8370470507466585       0.27724374227012144
2010000000               0.8574406885763939       0.20099675503359513
2040000000               0.8709553066608109       0.12334544981561213
2070000000               0.8775050748602524       0.04490542494739338
2100000000               0.8770584866064532       -0.03370376298906665
2130000000               0.8696383762681145       -0.11186326640667328
2.16E9                   0.8553215576416484       -0.18895958628554443
2.19E9                   0.8342380885435781       -0.26438915771525
2.22E9                   0.8065701679208399       -0.337562854820695
2.25E9                   0.7725506734707963       -0.40791038962374454
2.28E9                   0.7324613488492219       -0.474884581036765
2.31E9                   0.6866306503757479       -0.5379654714798672
2.34E9                   0.6354312634832606       -0.5966642700827244
2.37E9                   0.5792772970642138       -0.6505271043527163
2.4E9                    0.5186211608510114       -0.6991385619646858
2.43E9                   0.4539501243203876       -0.7421250028511024
2.46E9                   0.38578254835235043      -0.7791576128694245
2.49E9                   0.3146637763759337       -0.809955151818736
2.52E9                   0.2411616813013005       -0.8342863188761376
2.55E9                   0.16586190007912072      -0.8519716278593862
2.58E9                   0.0893628585572456       -0.8628846776291529
2.61E9                   0.012270771127345093     -0.86695275655124
2.64E9                   -0.06480516369880061     -0.864156845001968
2.67E9                   -0.14125722733919321     -0.8545312237707405
2.7E9                    -0.21648334513747605     -0.8381629468617166
2.73E9                   -0.28989116594691205     -0.8151913233314977
2.76E9                   -0.36090230352020475     -0.7858073393713165
2.79E9                   -0.42895684967444947     -0.7502527952666487
2.82E9                   -0.4935180821751729      -0.7088189284066572
2.85E9                   -0.5540771782741442      -0.6618444051217884
2.88E9                   -0.6101577410101072      -0.6097126895029615
2.91E9                   -0.6613200033469819      -0.5528488709254835
2.94E9                   -0.7071646388333284      -0.4917160493759566
2.97E9                   -0.7473361495140465      -0.42681136374719525
3.0E9                    -0.7815258197001023      -0.35866172844638466
3.03E9                   -0.8094742285257628      -0.28781932858109577
3.06E9                   -0.8309733130122832      -0.21485691637517845
3.09E9                   -0.8458679716248731      -0.14036294967267535
3.12E9                   -0.8540571985007951      -0.0649366143633873
3.15E9                   -0.8554947405920612      0.010817225741599329
3.18E9                   -0.8501892733897338      0.08629310558066969
3.21E9                   -0.8382040955618507      0.1608900157081964
3.24E9                   -0.8196563477877823      0.2340163918936408
3.27E9                   -0.7947157662504889      0.3050949913140391
3.3E9                    -0.7636029862561906      0.37356761022875123
3.33E9                   -0.7265874161186967      0.4388996004411828
3.36E9                   -0.6839847058063122      0.5005841442899065
3.39E9                   -0.6361538387001828      0.5581462512112653
3.42E9                   -0.5834938782468257      0.6111464424037784
3.45E9                   -0.5264404044482646      0.6591840937055891
3.48E9                   -0.4654616774710597      0.7019004112135423
3.51E9                   -0.4010545680475298      0.738981018123292
3.54E9                   -0.3337402956642443      0.7701581360751034
3.57E9                   -0.26406001687266967     0.795212348771431
3.6E9                    -0.19257030625396399     0.8139739405772586
3.63E9                   -0.11983857257170705     0.8263238075703087
3.66E9                   -0.04643845150489483     0.8321939432989341
3.69E9                   0.02705478536431052      0.8315675058562477
3.72E9                   0.10006876805436421      0.824478476648546
3.75E9                   0.17203847795015115      0.8110109241158701
3.78E9                   0.2424105784255037       0.7912978874974961
3.81E9                   0.31064759744879566      0.7655198966848139
3.84E9                   0.37623193463147264      0.7339031447295914
3.87E9                   0.43866966597857415      0.696717330155129
3.9E9                    0.4974941189848995       0.6542731877672398
3.93E9                   0.5522691903447321       0.6069197295232281
3.96E9                   0.6025923786001197       0.55504122161712
3.99E9                   0.6480975063178811       0.49905392962066436
4.02E9                   0.6884571108229974       0.439402669904794
4.05E9                   0.7233844910455016       0.3765572098153936
4.08E9                   0.752635407916333        0.31100856071997135
4.11E9                   0.7760094467157569       0.2432652041454395
4.14E9                   0.7933510575106539       0.17384928301075384
4.17E9                   0.8045502922980265       0.10329277928773468
4.2E9                    0.8095432541025289       0.03213368971886981
4.23E9                   0.8083122657080435       -0.03908779332934582
4.26E9                   0.8008857583797767       -0.109833087922144
4.29E9                   0.7873378771437466       -0.17956900219867578
4.32E9                   0.7677878006065448       -0.24777146854101645
4.35E9                   0.7423987779797209       -0.3139292112529152
4.38E9                   0.7113768905503115       -0.3775473280660149
4.41E9                   0.6749695461611638       -0.43815077047147205
4.44E9                   0.6334637126998417       -0.49528771120278564
4.47E9                   0.5871838917697169       -0.5485327873645702
4.5E9                    0.5364898298106516       -0.5974902034286055
4.53E9                   0.4817739633032254       -0.6417966716150599
4.56E9                   0.423458598457931        -0.6811241600762568
4.59E9                   0.3619928330182294       -0.7151824146600165
4.62E9                   0.29784923706141025      -0.7437212186976841
4.65E9                   0.231520318561504        -0.7665323580617125
4.68E9                   0.16351480685519368      -0.7834512644888061
4.71E9                   0.09435379153893636      -0.7943583180949747
4.74E9                   0.024566755432791076     -0.7991797984742978
4.77E9                   -0.045312462064983454    -0.7978884811616279
4.8E9                    -0.11474973928926442     -0.7905038810158965
4.83E9                   -0.18321475731050807     -0.7770921455058375
4.86E9                   -0.25018507184736116     -0.7577655994264181
4.89E9                   -0.31515014883285564     -0.7326819398443348
4.92E9                   -0.37761533759286947     -0.7020430781590254
4.95E9                   -0.43710575155079534     -0.6660936264364302
4.98E9                   -0.4931700214182495      -0.6251190283823658
5.01E9                   -0.5453838830185394      -0.5794433404346532
5.04E9                   -0.593353559959565       -0.5294266752281764
5.07E9                   -0.6367189021937633      -0.4754623265790187
5.1E9                    -0.675156243782195       -0.4179736021821603
5.13E9                   -0.7083809474799158      -0.35741039670069186
5.16E9                   -0.7361496101907521      -0.2942455430736385
5.19E9                   -0.75826191118499        -0.22897098291064025
5.22E9                   -0.7745620934208823      -0.16209379631230425
5.25E9                   -0.7849400748537518      -0.0941321279298525
5.28E9                   -0.7893321896967027      -0.025611040093554163
5.31E9                   -0.787721558048947       0.04294168030849854
5.34E9                   -0.7801380784488496      0.11099973554811311
5.37E9                   -0.7666580346410786      0.1780425215101492
5.4E9                    -0.7474033084951757      0.24355928573150318
5.43E9                   -0.7225401966728291      0.3070531949490349
5.46E9                   -0.6922778380248963      0.3680452638636659
5.49E9                   -0.6568662695785781      0.42607809689458415
5.52E9                   -0.6165941391392572      0.4807193988911885
5.55E9                   -0.5717861107877173      0.5315652177093779
5.58E9                   -0.5228000052165479      0.5782428908800639
5.61E9                   -0.4700237193808354      0.6204136792233008
5.64E9                   -0.413871968335089       0.6577750814375234
5.67E9                   -0.3547828859230204      0.6900628331806367
5.7E9                    -0.29321451060298626     0.7170525991845426
5.73E9                   -0.22964117162316633     0.7385613646436978
5.76E9                   -0.16454978421097693     0.7544485225490809
5.79E9                   -0.09843606522654369     0.7646166413916013
5.82E9                   -0.03180069335255631     0.769011890082929
5.85E9                   0.03485454569340742      0.7676241005248152
5.88E9                   0.10103057656355291      0.7604864628559661
5.91E9                   0.16623476158075975      0.7476748680159323
5.94E9                   0.22998449572870996      0.729306928087194
5.97E9                   0.29181064324074185      0.705540711558571
6.0E9                    0.35126080444619634      0.676573228128037
