% Model:              three_layers reality at 0.1mm.mph
% Version:            COMSOL 5.6.0.280
% Date:               Feb 23 2022, 19:42
% Table:              表格 1 - 全局计算 1
% freq (Hz)              real(emw.S11) (1)        imag(emw.S11) (1)
300000000                0.5694153074207415       -0.7616890731807
330000000                0.4972618831869584       -0.8094242746830655
360000000                0.4212565904718426       -0.8504303451504772
390000000                0.3420020708444268       -0.8843994622337397
420000000                0.26012931133232514      -0.9110754430648198
450000000                0.17629265017968568      -0.9302570923514987
480000000                0.0911645136332183       -0.9418008915151506
510000000                0.005429936960071125     -0.9456230588463564
540000000                -0.08021908376737859     -0.9417009992556251
570000000                -0.16508935671293268     -0.9300741532601589
600000000                -0.24849232840431723     -0.9108442511208854
630000000                -0.32974993266893826     -0.884174976399912
660000000                -0.40820040294904936     -0.8502910441457768
690000000                -0.48320399275755543     -0.8094767012462608
720000000                -0.5541485490874681      -0.7620736601924065
750000000                -0.6204548842381716      -0.7084784815083656
780000000                -0.6815818900813997      -0.6491394259441756
810000000                -0.7370313417323588      -0.5845528023726926
840000000                -0.7863523387684341      -0.5152588433187718
870000000                -0.8291453352154271      -0.44183714572487665
900000000                -0.86506571332684        -0.36490171992679454
930000000                -0.8938268606234445      -0.28509569506762245
960000000                -0.9152027149720761      -0.20308573389511286
990000000                -0.9290297486049313      -0.11955621350275498
1020000000               -0.9352083681682866      -0.03520323271676271
1050000000               -0.9337037153390073      0.049271491981013486
1080000000               -0.9245458594405014      0.13316677748974615
1110000000               -0.9078293811780469      0.21578810746838886
1140000000               -0.8837123540943103      0.2964536841434419
1170000000               -0.852414737597502       0.37450033567275715
1200000000               -0.8142162026588347      0.44928921846029174
1230000000               -0.7694534178040469      0.5202112576438656
1260000000               -0.7185168291685208      0.586692272487219
1290000000               -0.6618469739897833      0.6481977383008959
1320000000               -0.5999303715049746      0.7042371420255145
1350000000               -0.5332950391631031      0.7543678944134569
1380000000               -0.46250568519781493     0.7981987677712512
1410000000               -0.3881586309425165      0.8353928346341016
1440000000               -0.3108765171607932      0.8656698894552819
1470000000               -0.23130284988676478     0.8888083412733524
1500000000               -0.150096440124727       0.9046465720755447
1530000000               -0.06792579159346666     0.9130837610259631
1560000000               0.014536511902428906     0.9140801806349623
1590000000               0.09661936913071366      0.9076569757767952
1620000000               0.17765862768943333      0.8938954412984631
1650000000               0.25700240953224557      0.8729358178469504
1680000000               0.33401625558925546      0.8449756291433191
1710000000               0.4080880524965352       0.8102675868676292
1740000000               0.4786327085307308       0.7691170916656473
1770000000               0.5450965492386157       0.7218793607762084
1800000000               0.6069614074245231       0.6689562139926823
1830000000               0.6637483852965496       0.6107925509070641
1860000000               0.7150212706326695       0.5478725526081262
1890000000               0.7603895917068748       0.4807156416126813
1920000000               0.79951129928184         0.40987223353076585
1950000000               0.8320950670214391       0.33591931365749067
1980000000               0.8579022046521942       0.25945587121015234
2010000000               0.876748181350164        0.18109822286873234
2040000000               0.8885037598419093       0.10147525576680388
2070000000               0.8930957447043572       0.021223617707904645
2100000000               0.8905073509169903       -0.05901712133361751
2130000000               0.8807782000273406       -0.1386093181435055
2.16E9                   0.8640039493478707       -0.21692210548290225
2.19E9                   0.8403355512830388       -0.2933362405978843
2.22E9                   0.8099781209520011       -0.36724895855289946
2.25E9                   0.7731893583530504       -0.43807882923187313
2.28E9                   0.7302774343027381       -0.5052705789170456
2.31E9                   0.6815982352997847       -0.5682997557449377
2.34E9                   0.6275519244413016       -0.6266770055477418
2.37E9                   0.5685789511366703       -0.679951662619801
2.4E9                    0.5051558760171456       -0.7277144692040797
2.43E9                   0.437791475371794        -0.7695995563658993
2.46E9                   0.3670233714180567       -0.8052861545997745
2.49E9                   0.2934149919801183       -0.8345005430591675
2.52E9                   0.21755235528761327      -0.8570184120851017
2.55E9                   0.14004024643328386      -0.8726673919311706
2.58E9                   0.061497676818135005     -0.8813293179799792
2.61E9                   -0.01744720041565593     -0.8829419034959258
2.64E9                   -0.09616245339682693     -0.8774996956826957
2.67E9                   -0.17401779802563483     -0.8650543407437896
2.7E9                    -0.2503899622673023      -0.8457142392083405
2.73E9                   -0.324667928591601       -0.8196436679121032
2.76E9                   -0.39625802654779757     -0.7870614205967185
2.79E9                   -0.46458885535327277     -0.7482389975960365
2.82E9                   -0.5291160134209444      -0.703498362792021
2.85E9                   -0.589326605955513       -0.6532092819697143
2.88E9                   -0.6447434971822825      -0.5977862576719452
2.91E9                   -0.6949292708559981      -0.5376850795403528
2.94E9                   -0.7394898621182316      -0.473399013978817
2.97E9                   -0.7780778245339806      -0.4054546623821545
3.0E9                    -0.8103951986212021      -0.33440752204915025
3.03E9                   -0.836195951394555       -0.2608372886424924
3.06E9                   -0.8552879606628295      -0.18534294316760358
3.09E9                   -0.8675345227592258      -0.10853766969196477
3.12E9                   -0.8728553677582515      -0.031043652713055793
3.15E9                   -0.8712271720305603      0.0465131951029374
3.18E9                   -0.8626835640404829      0.12350852357449263
3.21E9                   -0.8473146251559692      0.1993248025926403
3.24E9                   -0.8252658929951231      0.2733564966535728
3.27E9                   -0.7967368799972052      0.3450151077534875
3.3E9                    -0.7619791244861057      0.41373404081745113
3.33E9                   -0.7212937953377087      0.47897324817784837
3.36E9                   -0.6750288747677455      0.5402236121792122
3.39E9                   -0.6235759465596197      0.5970110275552235
3.42E9                   -0.567366620055044       0.6489001469644969
3.45E9                   -0.5068686233489416      0.6954977549938309
3.48E9                   -0.44258160310950034     0.736455737569692
3.51E9                   -0.3750326730778693      0.771473616192534
3.54E9                   -0.3047717591330885      0.8003006197875548
3.57E9                   -0.23236679438261643     0.8227372727663064
3.6E9                    -0.15839882319310927     0.8386364856687609
3.63E9                   -0.08345707596214443     0.8479041450537989
3.66E9                   -0.00813407665907544     0.850499210549124
3.69E9                   0.06697915798817515      0.8464333380498981
3.72E9                   0.14129777474715297      0.8357700575929997
3.75E9                   0.2142475498731841       0.8186235420037854
3.78E9                   0.2852691276338806       0.7951570085662114
3.81E9                   0.35382200362968685      0.765580801068194
3.84E9                   0.41938823745031295      0.7301502028999635
3.87E9                   0.48147589382776596      0.6891630311918039
3.9E9                    0.5396222264869849       0.6429570546419643
3.93E9                   0.5933966304606069       0.5919072625968765
3.96E9                   0.6424033907752844       0.5364229931641955
3.99E9                   0.686284246964862        0.47694490895465597
4.02E9                   0.7247207745607529       0.4139417978427609
4.05E9                   0.7574365634926817       0.34790717619644357
4.08E9                   0.7841991554056534       0.27935568395252763
4.11E9                   0.8048216931866023       0.20881927998540523
4.14E9                   0.819164238174987        0.13684326626550733
4.17E9                   0.8271347215843751       0.06398218506294943
4.2E9                    0.8286895127274665       -0.009204358439832422
4.23E9                   0.8238336030804722       -0.0821558960980821
4.26E9                   0.8126204180601836       -0.15431527421815378
4.29E9                   0.7951512755126121       -0.22513277357343442
4.32E9                   0.7715745107820532       -0.2940701480805266
4.35E9                   0.7420842844129901       -0.3606045653969469
4.38E9                   0.7069190825286296       -0.4242324360732389
4.41E9                   0.6663599146391633       -0.48447311638071605
4.44E9                   0.6207282108624718       -0.5408724658455188
4.47E9                   0.5703834212684769       -0.5930062352025895
4.5E9                    0.5157203236232878       -0.640483256235798
4.53E9                   0.45716605141109135      -0.6829484025384314
4.56E9                   0.39517686050308787      -0.720085290089346
4.59E9                   0.33023465923737877      -0.7516186889202003
4.62E9                   0.2628433320105682       -0.7773166217238079
4.65E9                   0.19352488986825236      -0.7969921316182247
4.68E9                   0.12281548212034964      -0.810504708319169
4.71E9                   0.05126129995949569      -0.8177613681325644
4.74E9                   -0.020585601673635878    -0.8187173860799746
4.77E9                   -0.09217154325372122     -0.8133766773789362
4.8E9                    -0.16294550200598634     -0.8017918205330465
4.83E9                   -0.23236341406452843     -0.784063708260182
4.86E9                   -0.299892467948448       -0.760340808795188
4.89E9                   -0.365015349339304       -0.730818021614448
4.92E9                   -0.42723438688426474     -0.6957351193488295
4.95E9                   -0.4860755425965504      -0.6553747802719443
4.98E9                   -0.5410921899800576      -0.6100602307333657
5.01E9                   -0.5918686287310344      -0.5601525314654792
5.04E9                   -0.6380232962760428      -0.5060475528359059
5.07E9                   -0.6792116513273614      -0.4481726898266928
5.1E9                    -0.7151287205795525      -0.38698336590380633
5.13E9                   -0.7455113124237877      -0.32295936589851254
5.16E9                   -0.770139906836225       -0.2566010240119037
5.19E9                   -0.7888402260776192      -0.18842527873504186
5.22E9                   -0.8014844771384126      -0.11896159964824563
5.25E9                   -0.8079922409771394      -0.04874779595869813
5.28E9                   -0.8083309741054283      0.02167426656839537
5.31E9                   -0.8025160923114716      0.09176299188618028
5.34E9                   -0.7906106246313953      0.1609813590230303
5.37E9                   -0.772724450792138       0.22880114047702604
5.4E9                    -0.7490131566295892      0.29470698037239246
5.43E9                   -0.7196765513879808      0.3582003004570842
5.46E9                   -0.6849568866102174      0.418803022571624
5.49E9                   -0.6451368029445538      0.47606110847248967
5.52E9                   -0.6005370153425743      0.5295479196684134
5.55E9                   -0.5515137348156098      0.5788673925315048
5.58E9                   -0.498455819355349       0.6236570113715262
5.61E9                   -0.44178164882394155     0.6635905481356352
5.64E9                   -0.3819357281313656      0.6983805252812085
5.67E9                   -0.31938503889344727     0.727780351067195
5.7E9                    -0.25461517996553296     0.7515860772759049
5.73E9                   -0.18812635726030164     0.7696377410333325
5.76E9                   -0.12042929635783378     0.7818202748209881
5.79E9                   -0.05204115058180445     0.788063996633109
5.82E9                   0.01651853921867268      0.7883447152785045
5.85E9                   0.08473180274008688      0.782683494470927
5.88E9                   0.15208610901478858      0.7711461109840064
5.91E9                   0.21807814946778326      0.7538422234058686
5.94E9                   0.28221753469714095      0.7309242499473777
5.97E9                   0.34403039105145583      0.7025859446151816
6.0E9                    0.4030628283649398       0.6690606627823824
