% Model:              three_layers reality at 0.1mm.mph
% Version:            COMSOL 5.6.0.280
% Date:               Mar 8 2022, 10:54
% Table:              表格 1 - 全局计算 1
% freq (Hz)              real(emw.S11) (1)        imag(emw.S11) (1)
300000000                0.4406737101262195       -0.8266206289632909
330000000                0.3507370596003675       -0.8661325870917365
360000000                0.25752390555465254      -0.8960497232727053
390000000                0.16201674413877054      -0.9161142632183641
420000000                0.06522369626628936      -0.9261661326525413
450000000                -0.03183260764066596     -0.9261467026506764
480000000                -0.12812636739887875     -0.9161008812584586
510000000                -0.22264000972930909     -0.8961776727387811
540000000                -0.3143754921401519      -0.8666293007271524
570000000                -0.4023653729488674      -0.8278089780562878
600000000                -0.4856835174435992      -0.7801674008441966
630000000                -0.5634553147945215      -0.7242480453687656
660000000                -0.6348672902308087      -0.6606813493855235
690000000                -0.6991760029825574      -0.5901778662003297
720000000                -0.755716130472251       -0.5135204862505969
750000000                -0.8039076486511446      -0.431555828489238
780000000                -0.8432620292288633      -0.3451849108853918
810000000                -0.8733873864210597      -0.2553532157187643
840000000                -0.8939925183276061      -0.16304027113770184
870000000                -0.904889801630246       -0.069248874333514
900000000                -0.9059969118807795      0.02500591495806566
930000000                -0.8973373559701314      0.11870788055543557
960000000                -0.8790398176271896      0.21085072542860336
990000000                -0.8513363309418992      0.3004489884881013
1020000000               -0.8145593108904032      0.3865486770186892
1050000000               -0.7691374831327839      0.46823749446919216
1080000000               -0.7155907681913432      0.5446545488909781
1110000000               -0.6545241867486734      0.6149994354149619
1140000000               -0.5866208640034711      0.6785405941638518
1170000000               -0.5126342201426425      0.734622855745808
1200000000               -0.4333794430119256      0.782674096273489
1230000000               -0.34972434555700754     0.8222109361096571
1260000000               -0.2625797166438259      0.8528434281688565
1290000000               -0.17288927773468465     0.8742786943013743
1320000000               -0.08161936102548567     0.8863234808194517
1350000000               0.010251574634271421     0.8888856171289659
1380000000               0.10174347322132889      0.8819743738542191
1410000000               0.19188514155464864      0.8656997292718643
1440000000               0.27972452749545024      0.8402705647410832
1470000000               0.3643387079942221       0.8059918211329635
1500000000               0.4448434836416295       0.7632606590019653
1530000000               0.5204024825603598       0.7125616751279822
1560000000               0.5902356832131691       0.6544612371807988
1590000000               0.6536272734770829       0.5896010065217566
1620000000               0.7099327717605857       0.5186907263606136
1650000000               0.758585344725508        0.4425003588715143
1680000000               0.7991012656944385       0.36185166014837483
1710000000               0.8310844674258231       0.2776092862986284
1740000000               0.8542301531402757       0.1906715271793956
1770000000               0.8683274398369787       0.10196076663112899
1800000000               0.8732610183976419       0.012413769393946892
1830000000               0.8690118255518855       -0.07702810510559543
1860000000               0.8556567333713453       -0.16542866268641465
1890000000               0.8333672726656627       -0.2518665110390578
1920000000               0.8024074172506531       -0.3354444797529234
1950000000               0.7631304665439047       -0.4152987359434156
1980000000               0.7159750738399318       -0.4906075157167384
2010000000               0.6614604763157754       -0.5605994026126715
2040000000               0.6001809888078903       -0.62456109907267
2070000000               0.5327998242097044       -0.6818446562293673
2100000000               0.46004229392962126      -0.7318741511111821
2130000000               0.38268841578194146      -0.7741518243316121
2.16E9                   0.30156490414599113      -0.8082637062327627
2.19E9                   0.2175364330463596       -0.8338847410835131
2.22E9                   0.1314959567783822       -0.8507833273178282
2.25E9                   0.0443537988791217       -0.8588249756037607
2.28E9                   -0.04297469205304392     -0.8579744285705303
2.31E9                   -0.12958268255011518     -0.8482952048257151
2.34E9                   -0.2145854658655141      -0.8299454896202001
2.37E9                   -0.2971320111517812      -0.8031701125679132
2.4E9                    -0.3764121216526098      -0.7682901417935935
2.43E9                   -0.4516584180701288      -0.7256933767553735
2.46E9                   -0.5221451803142558      -0.6758289587772097
2.49E9                   -0.5871879788075347      -0.6192068195514475
2.52E9                   -0.6461471920545487      -0.5563995853457221
2.55E9                   -0.6984357199829656      -0.4880433813169127
2.58E9                   -0.7435288910322972      -0.414835222200105
2.61E9                   -0.7809741021181608      -0.33752673595285376
2.64E9                   -0.810398619115455       -0.256915280988627
2.67E9                   -0.8315150635964894      -0.17383375946024257
2.7E9                    -0.8441247839234708      -0.08914007687133517
2.73E9                   -0.8481195234101346      -0.0037067539950122047
2.76E9                   -0.8434817584178943      0.08158911070353428
2.79E9                   -0.8302839634741339      0.16587548162809818
2.82E9                   -0.8086869566320456      0.2482946321223991
2.85E9                   -0.7789374104751815      0.3280119979832259
2.88E9                   -0.741364578689262       0.4042246236720288
2.91E9                   -0.6963762743442938      0.47616916853222
2.94E9                   -0.6444541346793161      0.5431294272322084
2.97E9                   -0.5861482122208036      0.6044433108308787
3.0E9                    -0.522070939715955       0.6595092321127685
3.03E9                   -0.4528905248159465      0.7077918397773293
3.06E9                   -0.3793238385641652      0.7488270500246783
3.09E9                   -0.3021288688404729      0.7822263304146507
3.12E9                   -0.2220968156903699      0.8076801988673759
3.15E9                   -0.14004390912414807     0.8249609100942673
3.18E9                   -0.05680303183294644     0.8339243114751747
3.21E9                   0.026784771753990102     0.8345108601118654
3.24E9                   0.10987882118507067      0.8267458009719235
3.27E9                   0.19164728611024506      0.8107385122267546
3.3E9                    0.2712755625952097       0.7866810271794942
3.33E9                   0.3479744726458989       0.7548457428650542
3.36E9                   0.4209882199495047       0.7155823242131952
3.39E9                   0.4896020310349332       0.66931381128713
3.42E9                   0.5531494026979499       0.6165319378316906
3.45E9                   0.6110188645104575       0.5577916747958771
3.48E9                   0.6626601515049739       0.49370502521436876
3.51E9                   0.7075896703861816       0.42493411851569746
3.54E9                   0.7453951376531563       0.3521836829156608
3.57E9                   0.7757392749986963       0.27619301116613215
3.6E9                    0.7983624698152124       0.19772757157773532
3.63E9                   0.8130843464115309       0.11757044502539266
3.66E9                   0.8198042417513527       0.03651378255653789
3.69E9                   0.8185006299717721       -0.044649525778319314
3.72E9                   0.8092295848721147       -0.1251337995216226
3.75E9                   0.7921224058393581       -0.20416799128131938
3.78E9                   0.7673825622648143       -0.28100247716026105
3.81E9                   0.7352821371109322       -0.3549151486582017
3.84E9                   0.6961579683201808       -0.4252167975772615
3.87E9                   0.6504076843159418       -0.49125585922735304
3.9E9                    0.5984857901828015       -0.5524226595530107
3.93E9                   0.5408998765115145       -0.6081533734245218
3.96E9                   0.47820690590792625      -0.6579339144022855
3.99E9                   0.41100941585629835      -0.701303923270011
4.02E9                   0.3399514014461522       -0.7378609112135003
4.05E9                   0.2657136355685092       -0.7672644762899323
4.08E9                   0.18900824998738308      -0.7892403920492508
4.11E9                   0.11057251536218225      -0.8035842996235433
4.14E9                   0.031161884654783558     -0.8101647335920066
4.17E9                   -0.048457532248351504    -0.8089252686314978
4.2E9                    -0.12751683690496557     -0.7998856648196848
4.23E9                   -0.2052523206210779      -0.7831419857985157
4.26E9                   -0.28091335414779106     -0.758865741449018
4.29E9                   -0.35377004793977074     -0.7273021505026884
4.32E9                   -0.42312060176331506     -0.6887676260490765
4.35E9                   -0.48829830592153833     -0.6436465667012033
4.38E9                   -0.548678174983576       -0.5923875036468823
4.41E9                   -0.6036831891591853      -0.5354986251163774
4.44E9                   -0.6527900978761454      -0.4735426858026306
4.47E9                   -0.6955347159899866      -0.4071313130335157
4.5E9                    -0.7315166254401465      -0.33691874074881056
4.53E9                   -0.7604031895128159      -0.26359503012839536
4.56E9                   -0.7819327946862421      -0.18787886533718037
4.59E9                   -0.7959172554167926      -0.11051003846604977
4.62E9                   -0.8022433477928547      -0.03224175448374088
4.65E9                   -0.8008734746203796      0.04616710965015827
4.68E9                   -0.7918455004149575      0.12395967075520398
4.71E9                   -0.7752718206274356      0.20038853794856917
4.74E9                   -0.7513377363571903      0.2747230894200053
4.77E9                   -0.7202991901555844      0.34625650630338023
4.8E9                    -0.6824798861712695      0.41431255759323404
4.83E9                   -0.6382677834679431      0.47825211903996956
4.86E9                   -0.5881109321093344      0.5374793750358883
4.89E9                   -0.5325126290589532      0.5914476096021176
4.92E9                   -0.47202590564390123     0.6396644580487303
4.95E9                   -0.40724741076155885     0.6816964788146042
4.98E9                   -0.33881080994658896     0.7171729208064649
5.01E9                   -0.26737986561621396     0.7457886037056998
5.04E9                   -0.19364138723017846     0.7673058895414792
5.07E9                   -0.11829823403204874     0.7815557922815998
5.1E9                    -0.04206251447543572     0.7884383333747014
5.13E9                   0.03435093992557494      0.7879222876270864
5.16E9                   0.11023082734140709      0.7800444600515215
5.19E9                   0.18487542081008837      0.7649085852751104
5.22E9                   0.2575984941603645       0.7426838608503759
5.25E9                   0.3277351820603649       0.7136030477907062
5.28E9                   0.3946477472785006       0.6779600352905168
5.31E9                   0.45773114130773607      0.6361067944936263
5.34E9                   0.5164181968977246       0.5884497276572208
5.37E9                   0.5701843089184567       0.5354455137165973
5.4E9                    0.6185515345643001       0.4775966124675988
5.43E9                   0.6610921383581044       0.41544659077073176
5.46E9                   0.697431680151598        0.3495753797943866
5.49E9                   0.7272517695327864       0.28059448998870473
5.52E9                   0.7502925852967565       0.20914213305345675
5.55E9                   0.7663551989181805       0.135878151216953
5.58E9                   0.7753036670801884       0.061478643501647945
5.61E9                   0.7770667892228244       -0.013369794896278975
5.64E9                   0.771639375970181        -0.08797624678227356
5.67E9                   0.7590828551284027       -0.161652008948434
5.7E9                    0.7395250638880793       -0.23371735315779774
5.73E9                   0.7131591431399791       -0.3035083065252018
5.76E9                   0.6802415509817141       -0.3703832210364295
5.79E9                   0.641089315145166        -0.43372894042168497
5.82E9                   0.5960767048397495       -0.49296646558044216
5.85E9                   0.545631492886648        -0.5475561274278072
5.88E9                   0.49023090732982877      -0.5970023475413478
5.91E9                   0.4303972795727184       -0.6408580729831046
5.94E9                   0.36669333065538706      -0.67872892057096
5.97E9                   0.2997170225974756       -0.7102769927129169
6.0E9                    0.2300959322586582       -0.7352242667998659
