% Model:              three_layers reality at 0.1mm.mph
% Version:            COMSOL 5.6.0.280
% Date:               Mar 8 2022, 19:40
% Table:              表格 1 - 全局计算 1
% freq (Hz)              real(emw.S11) (1)        imag(emw.S11) (1)
300000000                0.43612107536731415      -0.8226346880011506
330000000                0.34667219963349505      -0.8614651358861378
360000000                0.2540439181767239       -0.8907838635604938
390000000                0.15920255003926906      -0.9103420321220249
420000000                0.06314058495045334      -0.9199864346381301
450000000                -0.03313457795533559     -0.9196634755415847
480000000                -0.12861203633610946     -0.9094213992943211
510000000                -0.22228878851550216     -0.8894109348571919
540000000                -0.3131809997222885      -0.8598844791187462
570000000                -0.4003350041360081      -0.8211939183637672
600000000                -0.4828379206770918      -0.7737871758013227
630000000                -0.5598277672040967      -0.7182035690649337
660000000                -0.6305029624475358      -0.6550680633858414
690000000                -0.6941311126243237      -0.5850845098642011
720000000                -0.7500569868598822      -0.5090279645609832
750000000                -0.7977095952200712      -0.4277361901828596
780000000                -0.8366082929179082      -0.342100448909225
810000000                -0.86636784582349        -0.2530557007364322
840000000                -0.8867024043021378      -0.16157032719691433
870000000                -0.8974283456183229      -0.06863550397887103
900000000                -0.8984659583283305      0.024745650862797154
930000000                -0.8898399560008667      0.11756902508011904
960000000                -0.8716788215453358      0.20884042894201915
990000000                -0.8442129972690653      0.29758635420613916
1020000000               -0.8077719493593837      0.38286445213162684
1050000000               -0.7627801486055332      0.46377361214470003
1080000000               -0.709752021666381       0.5394635284828044
1110000000               -0.6492859386597895      0.609143649981444
1140000000               -0.5820573136166911      0.6720914162772245
1170000000               -0.5088109037000969      0.7276596936746289
1200000000               -0.43035240141766007     0.7752833342863896
1230000000               -0.34753942084117173     0.8144847934991983
1260000000               -0.2612719846340591      0.8448787524447048
1290000000               -0.17248262245129117     0.866175704686416
1320000000               -0.08212619436693665     0.8781844785036791
1350000000               0.00883044610944026      0.8808136788756793
1380000000               0.09941883462173369      0.874072045488968
1410000000               0.18867921116057024      0.8580677353030405
1440000000               0.27567065709438926      0.8330065498370337
1470000000               0.3594809475521327       0.7991891385256764
1500000000               0.43923601734292217      0.7570072200138137
1530000000               0.5141089445403008       0.7069388730392875
1560000000               0.5833283627755238       0.6495429575052687
1590000000               0.6461862206255887       0.5854527345118131
1620000000               0.7020448149087056       0.5153687611809306
1650000000               0.7503430332293427       0.44005114251518473
1680000000               0.7906017505021791       0.3603112276645961
1710000000               0.82242833371986         0.2770028423036012
1740000000               0.845520219051847        0.19101315215311765
1770000000               0.8596675355307856       0.10325325488842951
1800000000               0.8647547597938655       0.014648599013718023
1830000000               0.8607613967486512       -0.07387067159793083
1860000000               0.8477616914755967       -0.16137934973454854
1890000000               0.8259233881593012       -0.2469666778491698
1920000000               0.7955055622478323       -0.3297456502458142
1950000000               0.7568555622793675       -0.40886201800040944
1980000000               0.7104051074202133       -0.48350291810380536
2010000000               0.6566655951340881       -0.5529050589702295
2040000000               0.5962226790450178       -0.6163624089749685
2070000000               0.5297301773372839       -0.6732333534174708
2100000000               0.4579033625859804       -0.7229473077902497
2130000000               0.38151165765203354      -0.7650107979237166
2.16E9                   0.3013707110550312       -0.7990130299626612
2.19E9                   0.21833374380553894      -0.8246309524056854
2.22E9                   0.13328195959468944      -0.8416337192540869
2.25E9                   0.04711374592845701      -0.8498862496633639
2.28E9                   -0.039267508321520775    -0.8493512329704421
2.31E9                   -0.12496671196417762     -0.8400885705322404
2.34E9                   -0.20911035209109985     -0.8222512362745658
2.37E9                   -0.29085766290450554     -0.7960773701563675
2.4E9                    -0.3694074583476026      -0.7618801716598647
2.43E9                   -0.44399996942484593     -0.7200388206815127
2.46E9                   -0.5139157747175472      -0.6709934992299219
2.49E9                   -0.5784756833565744      -0.6152450863902305
2.52E9                   -0.637044514154857       -0.553357097543738
2.55E9                   -0.6890389551832797      -0.4859563835488434
2.58E9                   -0.7339374706403745      -0.4137303930415006
2.61E9                   -0.7712898397369599      -0.337420828177029
2.64E9                   -0.8007248221407576      -0.25781477954103316
2.67E9                   -0.8219555248768506      -0.17573462760709804
2.7E9                    -0.8347826913465859      -0.09202763264071241
2.73E9                   -0.8390963285281154      -0.0075556945280978415
2.76E9                   -0.8348760397502102      0.07681453525607879
2.79E9                   -0.82219031246224        0.16022115159762182
2.82E9                   -0.8011949074210162      0.24181610975105516
2.85E9                   -0.7721304296012979      0.32077395861920455
2.88E9                   -0.7353191271624299      0.396300178672252
2.91E9                   -0.6911609521280135      0.46763909159474937
2.94E9                   -0.6401289157909195      0.5340812956737889
2.97E9                   -0.5827637772825495      0.5949705732120559
3.0E9                    -0.5196681116599782      0.6497102135486561
3.03E9                   -0.45149981234446374     0.6977686963995917
3.06E9                   -0.3789650909542779      0.7386846841046637
3.09E9                   -0.3028110445978669      0.7720712777835911
3.12E9                   -0.2238178664231259      0.7976195003109198
3.15E9                   -0.1427907789425131      0.8151009782865701
3.18E9                   -0.06055177131610456     0.8243698048606204
3.21E9                   0.022068778929475032     0.8253635746949857
3.24E9                   0.10424052198951445      0.8181035904639103
3.27E9                   0.18514151591721825      0.8026942462786663
3.3E9                    0.26396650122960746      0.7793215967405148
3.33E9                   0.3399350031361028       0.7482511210768724
3.36E9                   0.4122991944561303       0.7098246908739079
3.39E9                   0.48035144830950305      0.6644567489171442
3.42E9                   0.5434315014577639       0.6126297078168473
3.45E9                   0.6009331374763793       0.5548885829635601
3.48E9                   0.6523102859076908       0.4918348873283403
3.51E9                   0.6970824225628487       0.424119837347533
3.54E9                   0.7348391522193574       0.35243694919772306
3.57E9                   0.7652438626359797       0.2775141404949079
3.6E9                    0.7880363617098691       0.20010548769064865
3.63E9                   0.803034447114161        0.12098281665121838
3.66E9                   0.8101344050242354       0.04092731639542433
3.69E9                   0.8093104835452725       -0.03927863910442871
3.72E9                   0.8006134296361509       -0.11885929576434857
3.75E9                   0.784168212910365        -0.19705281433576338
3.78E9                   0.7601710876383987       -0.2731179529985425
3.81E9                   0.7288861682458901       -0.3463400767922182
3.84E9                   0.6906417099543287       -0.416036488599368
3.87E9                   0.645826282337405        -0.4815611478819179
3.9E9                    0.5948849834072959       -0.5423089203515744
3.93E9                   0.5383157584034427       -0.5977195596850818
3.96E9                   0.4766657736832176       -0.6472816322766894
3.99E9                   0.4105276844189474       -0.6905365418600948
4.02E9                   0.34053556444006183      -0.7270827007146248
4.05E9                   0.26736026409732344      -0.7565797605642257
4.08E9                   0.191704029038503        -0.77875270120813
4.11E9                   0.11429432598260175      -0.7933955118636659
4.14E9                   0.03587694484623132      -0.800374202094962
4.17E9                   -0.04279145392035453     -0.7996289367959355
4.2E9                    -0.12095112337417024     -0.7911751795282891
4.23E9                   -0.19784711703808588     -0.775103822558389
4.26E9                   -0.2727370855137625      -0.7515803566354435
4.29E9                   -0.3448988465197682      -0.720843174975022
4.32E9                   -0.4136376501480437      -0.68320111200605
4.35E9                   -0.47829310295180893     -0.6390302969097741
4.38E9                   -0.538245731588731       -0.588770370065476
4.41E9                   -0.592923160490288       -0.5329200828629761
4.44E9                   -0.641805857513702       -0.47203228840796857
4.47E9                   -0.6844323780781769      -0.40670833554742325
4.5E9                    -0.72040402155814        -0.3375918980041608
4.53E9                   -0.7493888088196572      -0.26536229779259063
4.56E9                   -0.7711246980713287      -0.19072741093503887
4.59E9                   -0.7854219766543141      -0.11441626815273859
4.62E9                   -0.7921647965519636      -0.03717147895557478
4.65E9                   -0.7913118571520306      0.04025838986226864
4.68E9                   -0.7828962734688653      0.11712636374544685
4.71E9                   -0.7670246925927823      0.19269444883661105
4.74E9                   -0.7438757270914877      0.2662408067921366
4.77E9                   -0.7136977582551864      0.3370666952535716
4.8E9                    -0.6768061304425741      0.40450316707335754
4.83E9                   -0.6335797247742083      0.4679175097300061
4.86E9                   -0.5844568827088661      0.5267193728897491
4.89E9                   -0.5299306584484976      0.5803664904826183
4.92E9                   -0.47054341380296905     0.6283698708894746
4.95E9                   -0.4068808205319357      0.6702983182353455
4.98E9                   -0.3395653892767991      0.7057821644573216
5.01E9                   -0.2692496872938892      0.7345161336999548
5.04E9                   -0.19660942870066853     0.7562613201546307
5.07E9                   -0.12233661371182887     0.7708463267096493
5.1E9                    -0.04713285475007254     0.7781676702842059
5.13E9                   0.02829703760758644      0.7781895936031119
5.16E9                   0.10325121201200159      0.7709434178982015
5.19E9                   0.17703674171509648      0.7565265221291133
5.22E9                   0.2489754824844539       0.7351009561890286
5.25E9                   0.31840987192944187      0.7068916208314032
5.28E9                   0.38470864027182955      0.6721839137086018
5.31E9                   0.44727231890521824      0.6313207700221328
5.34E9                   0.505538388527148        0.5846991064667502
5.37E9                   0.558985927971403        0.5327657687060574
5.4E9                    0.6071396983637971       0.4760131405717356
5.43E9                   0.6495736887994514       0.4149745724834305
5.46E9                   0.6859142190622656       0.35021973256012867
5.49E9                   0.7158427175916238       0.28234990376126823
5.52E9                   0.7390982673545274       0.21199317607754653
5.55E9                   0.7554799533908891       0.1397994368258398
5.58E9                   0.7648489741206707       0.06643505347420124
5.61E9                   0.7671304121520421       -0.007422829293040419
5.64E9                   0.762314513126367        -0.08109240000319745
5.67E9                   0.7504573042917095       -0.15389364349773005
5.7E9                    0.7316804076655103       -0.22515501989889453
5.73E9                   0.7061699693450433       -0.29422015722884715
5.76E9                   0.6741747251641638       -0.3604543336799676
5.79E9                   0.6360033216165747       -0.42325056478506284
5.82E9                   0.592021068024355        -0.48203520199082184
5.85E9                   0.5426462845200419       -0.5362730531199063
5.88E9                   0.48834633965125535      -0.5854721029020834
5.91E9                   0.42963338228976655      -0.629187915576376
5.94E9                   0.36705971037961177      -0.6670277507374824
5.97E9                   0.30121270658647054      -0.6986543524509354
6.0E9                    0.23270930187143027      -0.7237893141646161
