% Model:              three_layers reality at 0.1mm.mph
% Version:            COMSOL 5.6.0.280
% Date:               Mar 7 2022, 09:56
% Table:              表格 1 - 全局计算 1
% freq (Hz)              real(emw.S11) (1)        imag(emw.S11) (1)
300000000                0.5552784770812672       -0.7486614215500769
330000000                0.4844467029864955       -0.7947167604910531
360000000                0.4099574537459386       -0.8342146359252877
390000000                0.33238790404273755      -0.866861612385482
420000000                0.25234444725168487      -0.892413929381795
450000000                0.17045720884495205      -0.9106809410989485
480000000                0.0873744966252133       -0.9215277955137652
510000000                0.0037571791873769913    -0.9248774364175789
540000000                -0.07972699761910357     -0.9207119767636525
570000000                -0.1624091365041947      -0.909073471519011
600000000                -0.24362492572931363     -0.8900641067312013
630000000                -0.32272035152852335     -0.8638458158151292
660000000                -0.3990573437381104      -0.8306393324989252
690000000                -0.47201930976035555     -0.7907226904189035
720000000                -0.5410165088105473      -0.7444291819700348
750000000                -0.605491217573448       -0.692144792590411
780000000                -0.6649226373242082      -0.6343051314048372
810000000                -0.7188314940191449      -0.5713918837210996
840000000                -0.7667842836898875      -0.5039288164702047
870000000                -0.8083971182863104      -0.4324773727570584
900000000                -0.8433391304257865      -0.35763189683194796
930000000                -0.8713353997241846      -0.2800145353695516
960000000                -0.8921693680288496      -0.2002698657357266
990000000                -0.9056847167635923      -0.11905930510937057
1020000000               -0.9117866854957987      -0.037055357719232705
1050000000               -0.9104428174426901      0.04506424055582037
1080000000               -0.9016831244587055      0.12662241936318885
1110000000               -0.8855996710377037      0.2069486517205461
1140000000               -0.862345583927109       0.28538475178360223
1170000000               -0.8321335007988039      0.3612905330246996
1200000000               -0.7952334780780266      0.43404926981470116
1230000000               -0.7519703843141525      0.5030729082005799
1260000000               -0.7027208112189763      0.5678069755962492
1290000000               -0.6479095395571198      0.6277351437565578
1320000000               -0.5880056017573372      0.6823834039923495
1350000000               -0.5235179864906301      0.7313238196690719
1380000000               -0.4549910337474259      0.7741778262327514
1410000000               -0.3829995707277615      0.8106190554734205
1440000000               -0.3081438403902844      0.84037566647095
1470000000               -0.23104427488004886     0.8632321718678683
1500000000               -0.15233616597501598     0.8790307538378258
1530000000               -0.07266428346144825     0.887672069869886
1560000000               0.0073225087556005874    0.8891155535452218
1590000000               0.08697659155772097      0.8833792205127008
1620000000               0.1656568394367108       0.8705389941265663
1650000000               0.24273373738778956      0.850727569162358
1680000000               0.31759432695954964      0.8241328353682621
1710000000               0.3896469461607602       0.7909958854559153
1740000000               0.4583257312248762       0.7516086344909146
1770000000               0.5230948519898675       0.7063110794589078
1800000000               0.5834524560214798       0.6554882291895832
1830000000               0.6389343000668899       0.5995667358490326
1860000000               0.689117050902831        0.539011259749318
1890000000               0.7336212407025102       0.47432059957913036
1920000000               0.7721138652522694       0.4060236201475307
1950000000               0.8043106163003615       0.33467500947063356
1980000000               0.8299777422497183       0.2608508965082598
2010000000               0.848933534321239        0.185144359973661
2040000000               0.8610494382105962       0.10816085710885691
2070000000               0.86625079397651         0.03051359930396294
2100000000               0.8645172092933955       -0.047181102298564544
2130000000               0.8558825721652806       -0.12430850317725409
2.16E9                   0.8404347072091934       -0.20026009291345936
2.19E9                   0.8183146716148176       -0.2744382611481557
2.22E9                   0.7897156693703192       -0.34626096401507883
2.25E9                   0.7548815337925199       -0.41516638508431347
2.28E9                   0.7141046964309474       -0.4806175489071809
2.31E9                   0.6677235524461121       -0.542106768909162
2.34E9                   0.6161191946467852       -0.5991597128253832
2.37E9                   0.559711652382461        -0.651338820654825
2.4E9                    0.4989559787236667       -0.6982459223883828
2.43E9                   0.434338602411796        -0.7395241984099671
2.46E9                   0.36637414490843895      -0.7748599204022031
2.49E9                   0.2956024975775584       -0.8039844246924004
2.52E9                   0.22258568988633487      -0.8266764499260957
2.55E9                   0.14790416617127633      -0.8427645894890596
2.58E9                   0.07215239308485426      -0.8521294591882498
2.61E9                   -0.004066027159785257    -0.854705286143836
2.64E9                   -0.08014348876239002     -0.8504808164957413
2.67E9                   -0.15547356369485357     -0.8394995737021566
2.7E9                    -0.22945612049495293     -0.8218595456345054
2.73E9                   -0.30150232864951204     -0.7977123710074233
2.76E9                   -0.3710395241275539      -0.7672620718698678
2.79E9                   -0.43751591753020364     -0.7307633589072562
2.82E9                   -0.500405122802032       -0.688519525357183
2.85E9                   -0.5592104788315521      -0.6408799419589722
2.88E9                   -0.6134691318089527      -0.5882371666677056
2.91E9                   -0.6627558434833847      -0.5310236867791959
2.94E9                   -0.7066864901330348      -0.46970831567717464
2.97E9                   -0.7449212176780421      -0.4047922716357601
3.0E9                    -0.7771672207483138      -0.33680497074149357
3.03E9                   -0.8031811165860113      -0.26629957044893393
3.06E9                   -0.8227708886068537      -0.19384830410749576
3.09E9                   -0.8357973790073313      -0.12003765001453198
3.12E9                   -0.8421753148937775      -0.04546338098834048
3.15E9                   -0.8418738577987566      0.029274457828538325
3.18E9                   -0.8349166720473247      0.10357659443563288
3.21E9                   -0.821381513014853       0.17684955028919214
3.24E9                   -0.8013993416123739      0.2485105879229347
3.27E9                   -0.7751529762354056      0.3179925399685396
3.3E9                    -0.7428752977573998      0.3847484756059347
3.33E9                   -0.7048470268400451      0.4482561629935208
3.36E9                   -0.661394096106861       0.5080222883193123
3.39E9                   -0.6128846426497359      0.563586394341589
3.42E9                   -0.5597256491927561      0.614524503155272
3.45E9                   -0.5023592655483208      0.6604523894875113
3.48E9                   -0.4412588457265332      0.7010284727194223
3.51E9                   -0.37692474073206467     0.7359562981137892
3.54E9                   -0.3098798923767646      0.7649865812949352
3.57E9                   -0.24066527880780708     0.7879187955292627
3.6E9                    -0.16983526720569417     0.8046022888846243
3.63E9                   -0.09795293167192387     0.8149369279587539
3.66E9                   -0.025585394447799992    0.8188732752963708
3.69E9                   0.04670075477146192      0.8164123178259679
3.72E9                   0.11834391185322204      0.8076047722464722
3.75E9                   0.1887917410187221       0.7925500002098609
3.78E9                   0.25750525235205546      0.7713945716513058
3.81E9                   0.32396264784388723      0.7443305191891757
3.84E9                   0.3876629207270629       0.7115933294652801
3.87E9                   0.4481292061106594       0.6734597165235159
3.9E9                    0.5049118944897888       0.6302452154959555
3.93E9                   0.5575915294917888       0.5823016212934061
3.96E9                   0.6057815130334987       0.5300142791814405
3.99E9                   0.6491306327814386       0.4737992174135796
4.02E9                   0.6873254103935843       0.4141001024102618
4.05E9                   0.7200922497330432       0.3513849980459217
4.08E9                   0.7471993487577614       0.2861429218145078
4.11E9                   0.7684583315394914       0.21888020825711735
4.14E9                   0.7837255595501329       0.15011670819900008
4.17E9                   0.792903091954965        0.08038186640965557
4.2E9                    0.7959392796148959       0.010210727085357764
4.23E9                   0.7928289924687413       -0.059860084041281236
4.26E9                   0.7836134916068055       -0.12929635876052348
4.29E9                   0.7683799636009895       -0.19757025415293125
4.32E9                   0.7472607352963714       -0.264164166094751
4.35E9                   0.7204321836965975       -0.32857451237214214
4.38E9                   0.688113350184888        -0.3903154118996056
4.41E9                   0.650564263616936        -0.4489222452263702
4.44E9                   0.6080839745772025       -0.5039550776184462
4.47E9                   0.5610083039780024       -0.5550019213045702
4.5E9                    0.5097073125762522       -0.60168180979006
4.53E9                   0.45458250327949534      -0.6436476550259238
4.56E9                   0.3960637739868643       -0.6805888584515052
4.59E9                   0.33460614450863346      -0.7122336491969324
4.62E9                   0.27068628591491867      -0.738351127079613
4.65E9                   0.20479888355628761      -0.7587529938869888
4.68E9                   0.13745286530588707      -0.7732949628631758
4.71E9                   0.0691675238843601       -0.781877841725715
4.74E9                   4.6855762853361684E-4    -0.7844482871137918
4.77E9                   -0.06811595052934134     -0.7809992271975328
4.8E9                    -0.13605959782130003     -0.7715699447116084
4.83E9                   -0.20284174926713786     -0.7562458073513595
4.86E9                   -0.2679516200544951      -0.7351576294248066
4.89E9                   -0.33089231476005065     -0.7084806504068457
4.92E9                   -0.39118477662870915     -0.6764331232965342
4.95E9                   -0.4483715946847049      -0.6392745173040676
4.98E9                   -0.5020206164429187      -0.5973033529458164
5.01E9                   -0.5517283194227693      -0.5508547005939409
5.04E9                   -0.5971229050300434      -0.5002973833563205
5.07E9                   -0.6378670918422322      -0.44603092997804555
5.1E9                    -0.6736605993550198      -0.38848232181082665
5.13E9                   -0.7042423244010041      -0.32810256965841966
5.16E9                   -0.7293922167739192      -0.2653631437768022
5.19E9                   -0.748932855985009       -0.20075226819875627
5.22E9                   -0.7627307189598936      -0.13477108462740062
5.25E9                   -0.770697114230444       -0.06792969651841278
5.28E9                   -0.7727887503213676      -7.43119281187448E-4
5.31E9                   -0.7690079104157679      0.06627281785207863
5.34E9                   -0.7594022222599617      0.13260555894389842
5.37E9                   -0.7440640349207229      0.19774983668548238
5.4E9                    -0.7231294329188125      0.2612115669386068
5.43E9                   -0.6967769264045224      0.32251159254194195
5.46E9                   -0.6652258521526494      0.3811892644771224
5.49E9                   -0.6287345081842016      0.43680585917558096
5.52E9                   -0.5875980310313267      0.48894783175059797
5.55E9                   -0.5421460140435946      0.5372298982808329
5.58E9                   -0.4927398608501247      0.581297928780927
5.61E9                   -0.43976987051296446     0.6208316202713035
5.64E9                   -0.3836520599566453      0.6555469087476606
5.67E9                   -0.3248247437915424      0.6851980728240725
5.7E9                    -0.2637449098272193      0.7095794830628587
5.73E9                   -0.20088444639642883     0.728526961940649
5.76E9                   -0.13672628902652326     0.7419187397927404
5.79E9                   -0.07176055283278374     0.7496760170971163
5.82E9                   -0.006480702118470916    0.7517631638302351
5.85E9                   0.05862021431921108      0.7481875940582803
5.88E9                   0.12305325419493407      0.7389993462941256
5.91E9                   0.18633720013375774      0.724290383531232
5.94E9                   0.24800210243704124      0.7041936111426899
5.97E9                   0.30759273126795394      0.6788816032559408
6.0E9                    0.3646719102797638       0.6485650302406221
