% Model:              three_layers reality at 0.1mm.mph
% Version:            COMSOL 5.6.0.280
% Date:               Feb 22 2022, 19:37
% Table:              表格 1 - 全局计算 1
% freq (Hz)              real(emw.S11) (1)        imag(emw.S11) (1)
300000000                0.42172541767046107      -0.7689258440173804
330000000                0.3406625799203612       -0.8043842860199594
360000000                0.2569367823073348       -0.8316109777042169
390000000                0.17133348262924208      -0.8504029457931841
420000000                0.08466359454616601      -0.8606348934973918
450000000                -0.0022473344674644124   -0.8622619995670496
480000000                -0.08856930452998349     -0.8553213026010416
510000000                -0.17347755133286358     -0.8399318537932434
540000000                -0.2561617949773942      -0.8162937629679186
570000000                -0.33583505276794634     -0.7846862323145758
600000000                -0.41174198929616623     -0.7454646572234318
630000000                -0.48316676200019987     -0.699056867214882
660000000                -0.5494403127056212      -0.6459585784568379
690000000                -0.6099470535997091      -0.5867281304420877
720000000                -0.6641308973063191      -0.521980581999162
750000000                -0.7115005846315348      -0.45238124474382585
780000000                -0.7516342690584561      -0.37863873512011326
810000000                -0.7841833236829621      -0.3014976289488872
840000000                -0.8088753440037998      -0.2217308044164022
870000000                -0.8255163281487786      -0.14013156075534222
900000000                -0.8339920245530495      -0.05750560063794059
930000000                -0.8342684459346066      0.02533703632140724
960000000                -0.8263915570070992      0.10759000254258666
990000000                -0.8104861519615719      0.18845854981762633
1020000000               -0.7867539459776047      0.26716723380834523
1050000000               -0.7554709128834679      0.34296733835350895
1080000000               -0.7169839084387315      0.4151439467763255
1110000000               -0.6717066254565375      0.48302259279261917
1140000000               -0.6201149330939291      0.5459754293515287
1170000000               -0.5627416579951244      0.6034268602923594
1200000000               -0.5001708695579784      0.6548585865362617
1230000000               -0.43303173539231543     0.6998140257072959
1260000000               -0.36199201601095715     0.737902071541447
1290000000               -0.287751269906834       0.7688001670459242
1320000000               -0.21103384145840007     0.7922566730070634
1350000000               -0.13258170466613778     0.8080925210305964
1380000000               -0.05314723535568433     0.8162021478152918
1410000000               0.026514016533652908     0.8165537146390994
1440000000               0.1056504846769018       0.8091886230127892
1470000000               0.18352160664316097      0.7942203441787791
1500000000               0.2594046422827592       0.771832586375429
1530000000               0.33260122930183         0.7422768296437896
1560000000               0.40244361918707167      0.7058692633134153
1590000000               0.4683005410938755       0.6629871661644999
1620000000               0.5295826461787506       0.6140647735688978
1650000000               0.5857474900309836       0.5595886796967209
1680000000               0.6363040162386089       0.50009282612546
1710000000               0.6808165098763784       0.4361531307784189
1740000000               0.7189079954670444       0.3683818132866119
1770000000               0.7502630600424987       0.29742147433878896
1800000000               0.774630088097036        0.22393898752537966
1830000000               0.791822901596418        0.14861926248550492
1860000000               0.8017218047603252       0.07215893776278257
1890000000               0.8042740401637651       -0.0047399395253565684
1920000000               0.7994936697803603       -0.081376192389834
1950000000               0.7874609019591254       -0.15705570014787562
1980000000               0.7683208928105714       -0.23109744726697035
2010000000               0.7422820575602288       -0.30283939926783665
2040000000               0.70961393282577         -0.371644184063472
2070000000               0.6706446318438218       -0.4369045771522463
2100000000               0.6257579260362661       -0.49804881662635725
2130000000               0.5753899589227972       -0.5545458072720545
2.16E9                   0.5200255387496518       -0.6059103034415917
2.19E9                   0.46019384993884516      -0.6517081636374167
2.22E9                   0.39646326906953266      -0.6915616962772223
2.25E9                   0.3294348139733986       -0.7251548902490379
2.28E9                   0.2597337354774597       -0.752237885565934
2.31E9                   0.18799913571623839      -0.7726294631533276
2.34E9                   0.1148724879329036       -0.7862160058033503
2.37E9                   0.04098732521210007      -0.7929459950819235
2.4E9                    -0.033036877622483196    -0.7928210708647947
2.43E9                   -0.10659483473187913     -0.7858871127268378
2.46E9                   -0.17909099653652982     -0.7722295429671282
2.49E9                   -0.2499347672355235      -0.7519747758089902
2.52E9                   -0.3185395864626179      -0.725296016312545
2.55E9                   -0.3843272832239135      -0.6924195153157461
2.58E9                   -0.44673619181952984     -0.653628117509701
2.61E9                   -0.5052304362226093      -0.6092610857968546
2.64E9                   -0.5593083979934612      -0.5597108735744317
2.67E9                   -0.6085095139386459      -0.5054180829397731
2.7E9                    -0.6524193767269054      -0.44686564626618974
2.73E9                   -0.6906734637104224      -0.384572842737257
2.76E9                   -0.7229598568054633      -0.3190894137811606
2.79E9                   -0.7490212275099797      -0.25098984272359653
2.82E9                   -0.7686562562522495      -0.18086778054331795
2.85E9                   -0.7817205752732144      -0.10933058046754868
2.88E9                   -0.7881272744124944      -0.036993912772153796
2.91E9                   -0.7878469825750607      0.035523552268403834
2.94E9                   -0.7809075259858179      0.10760538932589617
2.97E9                   -0.7673931613388865      0.17864257421941993
3.0E9                    -0.7474433836375304      0.24803852583962405
3.03E9                   -0.7212513125838955      0.31521400251262777
3.06E9                   -0.6890616665766958      0.37961181845999314
3.09E9                   -0.6511683388959622      0.44070134522163223
3.12E9                   -0.6079115959808972      0.49798276399855096
3.15E9                   -0.5596749223391527      0.5509910376392043
3.18E9                   -0.5068815399360033      0.5992995751024576
3.21E9                   -0.449990631469107       0.6425235660011916
3.24E9                   -0.3894932963950991      0.6803229674513855
3.27E9                   -0.3259082660292532      0.7124051287703941
3.3E9                    -0.259777400304617       0.7385270404856507
3.33E9                   -0.1916609849488495      0.7584971919399585
3.36E9                   -0.12213284585961955     0.7721770162398589
3.39E9                   -0.05177529892513988     0.779481893210607
3.42E9                   0.018826039598076428     0.7803816718508048
3.45E9                   0.08908754405313656      0.7749006661706291
3.48E9                   0.15843291424506473      0.7631170754132572
3.51E9                   0.22629847308344342      0.7451617852193936
3.54E9                   0.2921383215077791       0.7212165232336532
3.57E9                   0.35542922633888385      0.6915113719720559
3.6E9                    0.4156751095733586       0.6563216809537702
3.63E9                   0.4724110174605818       0.6159644626784877
3.66E9                   0.5252064746355094       0.5707943942760094
3.69E9                   0.5736681678591901       0.521199571032756
3.72E9                   0.6174419475132628       0.4675971668207766
3.75E9                   0.6562141763722658       0.41042915281433906
3.78E9                   0.6897124936602975       0.3501582146283353
3.81E9                   0.7177061017988354       0.2872639899043467
3.84E9                   0.7400057257163208       0.22223971658077885
3.87E9                   0.7564634326389659       0.15558932669646272
3.9E9                    0.7669725156420981       0.08782493863832647
3.93E9                   0.7714676160277115       0.01946460597904998
3.96E9                   0.7699251792359715       -0.04896989761343056
3.99E9                   0.7623642201338581       -0.11695550789272308
4.02E9                   0.7488472500490219       -0.1839707279687709
4.05E9                   0.7294811291403569       -0.24949903253579692
4.08E9                   0.7044175804575528       -0.31303281027596197
4.11E9                   0.673853140137322        -0.37407771849603
4.14E9                   0.6380284038703685       -0.4321572455289775
4.17E9                   0.5972265338089621       -0.4868172515667243
4.2E9                    0.5517710837343692       -0.5376302838353422
4.23E9                   0.5020232629368379       -0.5841995219238574
4.26E9                   0.4483787824482326       -0.6261622817165016
4.29E9                   0.39126441380023086      -0.6631930712580301
4.32E9                   0.3311343524477879       -0.6950062337530916
4.35E9                   0.2684664322509116       -0.7213582256793909
4.38E9                   0.2037581997902148       -0.7420495654140189
4.41E9                   0.13752283804914409      -0.7569264605410305
4.44E9                   0.07028493016148706      -0.7658820930451578
4.47E9                   0.002576070675174691     -0.7688575211340938
4.5E9                    -0.06506964379353146     -0.765842149367421
4.53E9                   -0.13212018835713604     -0.7568737252570437
4.56E9                   -0.19805017304833808     -0.7420378378331608
4.59E9                   -0.2623453105616932      -0.7214669183256001
4.62E9                   -0.3245067052060212      -0.6953387710444332
4.65E9                   -0.38405489412858507     -0.6638746886531786
4.68E9                   -0.4405335983112855      -0.6273372235964536
4.71E9                   -0.49351317432236774     -0.5860276895031507
4.74E9                   -0.5425937883382399      -0.5402834492611188
4.77E9                   -0.5874083494363281      -0.49047501363021484
4.8E9                    -0.627625231126447       -0.43700293740759033
4.83E9                   -0.662950779363135       -0.3802944751159928
4.86E9                   -0.6931315631238343      -0.3207999573734335
4.89E9                   -0.7179562868703998      -0.2589888752155091
4.92E9                   -0.7372572674822994      -0.19534570468086804
4.95E9                   -0.7509113883753745      -0.1303655536739554
4.98E9                   -0.7588404785359446      -0.06454975310251536
5.01E9                   -0.7610111161836466      0.001598466044432723
5.04E9                   -0.7574339147674078      0.0675780745373065
5.07E9                   -0.7481624004849028      0.13289402462567804
5.1E9                    -0.7332916219100778      0.19706066450306198
5.13E9                   -0.7129566309114193      0.25960481476324354
5.16E9                   -0.6873309333806802      0.32006859719298764
5.19E9                   -0.6566249353233694      0.37801213761778807
5.22E9                   -0.6210843286690084      0.4330162460012793
5.25E9                   -0.5809883067758554      0.4846851097691695
5.28E9                   -0.5366475007908253      0.5326489474204174
5.31E9                   -0.4884015881089743      0.576566501633173
5.34E9                   -0.4366166150215855      0.6161272394165436
5.37E9                   -0.38168215172943215     0.6510531776573066
5.4E9                    -0.3240084226647028      0.6811003391811646
5.43E9                   -0.2640235202374296      0.7060599250851631
5.46E9                   -0.20217073607623837     0.7257593297164449
5.49E9                   -0.1389059639999628      0.7400631142152507
5.52E9                   -0.07469507211168284     0.7488740037332611
5.55E9                   -0.010011121163284821    0.7521339039286136
5.58E9                   0.054668677248222865     0.749824864789688
5.61E9                   0.1188663240483912       0.7419698687291534
5.64E9                   0.1821067150601346       0.7286332938294826
5.67E9                   0.2439215674461499       0.709920908386156
5.7E9                    0.30385344859098745      0.6859792940305689
5.73E9                   0.36145972461403614      0.6569946698163367
5.76E9                   0.4163162512018689       0.6231911822793976
5.79E9                   0.46802068986487005      0.5848288039753511
5.82E9                   0.5161954298562641       0.542201009657857
5.85E9                   0.5604901876317853       0.4956323600679058
5.88E9                   0.6005843990643428       0.4454760385537233
5.91E9                   0.6361894993330512       0.39211129967269254
5.94E9                   0.6670511208396306       0.3359407410842672
5.97E9                   0.6929511676957247       0.27738731303476627
6.0E9                    0.7137096759135446       0.21689101969069774
