% Model:              three_layers reality at 0.1mm.mph
% Version:            COMSOL 5.6.0.280
% Date:               Mar 1 2022, 15:57
% Table:              表格 1 - 全局计算 1
% freq (Hz)              real(emw.S11) (1)        imag(emw.S11) (1)
300000000                0.5764807022010102       -0.7870599382935024
330000000                0.5004468133076948       -0.837312946804222
360000000                0.4200986859310334       -0.8802479304097872
390000000                0.33613430941239425      -0.9154949998772083
420000000                0.2492846384896021       -0.9427501761918196
450000000                0.16030719912239705      -0.9617786162632047
480000000                0.06997940888790914      -0.9724171560915267
510000000                -0.020908330325417702    -0.9745761706949421
540000000                -0.11155970921408419     -0.9682407426444073
570000000                -0.20117969581234157     -0.9534711288572885
600000000                -0.2889817636863984      -0.9304025167674514
630000000                -0.3741950954217382      -0.8992440647723687
660000000                -0.4560716908938469      -0.8602772273402879
690000000                -0.5338933077380953      -0.8138533719244969
720000000                -0.6069781608691612      -0.7603907023210775
750000000                -0.6746873079357996      -0.7003705113414314
780000000                -0.7364306493307571      -0.634332793948853
810000000                -0.7916724738046441      -0.562871260717899
840000000                -0.8399364849573314      -0.4866277996534565
870000000                -0.8808102490027644      -0.40628644236536027
900000000                -0.9139490105423889      -0.3225668979880625
930000000                -0.9390788306128585      -0.23621772464159624
960000000                -0.955999009582106       -0.14800921391140956
990000000                -0.9645837667654513      -0.05872606793804217
1020000000               -0.9647831582807511      0.03084004789707588
1050000000               -0.9566232249193309      0.11989799223177562
1080000000               -0.9402053720778767      0.20766459001468318
1110000000               -0.9157049941141966      0.29337194595824934
1140000000               -0.8833693654294059      0.37627454806936367
1170000000               -0.8435148301046923      0.45565608366236554
1200000000               -0.7965233307206137      0.5308358955130634
1230000000               -0.7428383248518533      0.6011750120108232
1260000000               -0.6829601447504752      0.6660816920281164
1290000000               -0.6174408613956359      0.7250164332859642
1320000000               -0.5468787187564838      0.7774964011933907
1350000000               -0.4719122073743014      0.8230992439484619
1380000000               -0.3932138485374049      0.8614662684707004
1410000000               -0.31148376104205844     0.8923049606496136
1440000000               -0.2274430823796843      0.9153908418639038
1470000000               -0.14182731462878043     0.9305686620245901
1500000000               -0.05537966310466818     0.937752936979289
1530000000               0.03115556737444347      0.9369278451778164
1560000000               0.11703945783273469      0.9281465048066142
1590000000               0.2015447855086368       0.9115296580685804
1620000000               0.2839621077781924       0.887263794004881
1650000000               0.36360557310582564      0.855598745118288
1680000000               0.43981841794731746      0.816844796108463
1710000000               0.5119781136815217       0.7713693453472789
1740000000               0.5795011329489347       0.7195931612937999
1770000000               0.6418473097774847       0.6619862769994279
1800000000               0.6985237726469227       0.5990635662684256
1830000000               0.7490884342225279       0.5313800448916826
1860000000               0.7931530256064306       0.4595259399622723
1890000000               0.8303856669495939       0.38412156934513936
1920000000               0.8605129697638028       0.3058120724524916
1950000000               0.8833216697690734       0.22526203195001707
1980000000               0.8986597921715845       0.1431500245786835
2010000000               0.9064373543541713       0.0601631372038015
2040000000               0.9066266137431847       -0.02300851830673271
2070000000               0.8992618710748286       -0.10567726115659418
2100000000               0.8844388408269869       -0.18716324318667063
2130000000               0.8623136000682436       -0.2667997767900387
2.16E9                   0.8331011223444407       -0.3439385776125623
2.19E9                   0.7970733913296674       -0.4179549173899257
2.22E9                   0.7545570669641478       -0.4882526821317626
2.25E9                   0.7059306458781127       -0.5542693123725149
2.28E9                   0.6516210320499017       -0.6154805495576818
2.31E9                   0.5920994481933776       -0.6714048209249175
2.34E9                   0.5278767231057783       -0.7216069985669173
2.37E9                   0.45949819789212065      -0.7657012643423611
2.4E9                    0.3875387015481344       -0.8033530099874998
2.43E9                   0.3125980376127405       -0.8342800717956568
2.46E9                   0.2352970758243913       -0.8582538755309692
2.49E9                   0.15627406370904906      -0.8751009533621844
2.52E9                   0.07618056787176108      -0.884704835088868
2.55E9                   -0.00432332102028461     -0.8870078985734203
2.58E9                   -0.08457448084205091     -0.8820126879717357
2.61E9                   -0.16391264927537608     -0.8697824135881778
2.64E9                   -0.24168639027870267     -0.8504405945394705
2.67E9                   -0.31725891779194015     -0.8241699447752966
2.7E9                    -0.3900136716023612      -0.7912106301549916
2.73E9                   -0.4593596077382294      -0.7518579963020994
2.76E9                   -0.5247361904391488      -0.7064598306460868
2.79E9                   -0.5856180734620136      -0.6554131971715779
2.82E9                   -0.6415194515135497      -0.5991608707748443
2.85E9                   -0.6919980553615173      -0.5381873960196984
2.88E9                   -0.736658759914623       -0.4730147979391317
2.91E9                   -0.7751567733547697      -0.40419797742392344
2.94E9                   -0.8072003765974796      -0.332319829186809
2.97E9                   -0.8325531854907617      -0.2579861252593836
3.0E9                    -0.8510359125376946      -0.18182021125806913
3.03E9                   -0.8625276101897434      -0.10445756612847051
3.06E9                   -0.8669663836959963      -0.026540278443949128
3.09E9                   -0.8643495677660736      0.05128850608238527
3.12E9                   -0.8547333678113542      0.12839011080016227
3.15E9                   -0.8382319730389844      0.2041357735493881
3.18E9                   -0.8150161549244755      0.27791195834475796
3.21E9                   -0.7853113704462873      0.3491254828686199
3.24E9                   -0.7493953946209493      0.4172084146411824
3.27E9                   -0.7075955112738236      0.481622692472469
3.3E9                    -0.6602852944820988      0.5418644339513218
3.33E9                   -0.607881015865352       0.5974678937174946
3.36E9                   -0.550837715066171       0.6480090410132139
3.39E9                   -0.48964497257293776     0.6931087284130047
3.42E9                   -0.4248224260005545      0.7324354265298156
3.45E9                   -0.35691507322213795     0.7657075023220399
3.48E9                   -0.2864884086956702      0.7926950216105502
3.51E9                   -0.21412344299568664     0.8132210602109998
3.54E9                   -0.14041165946605308     0.8271625133756916
3.57E9                   -0.06594996548415787     0.8344504004493232
3.6E9                    0.008664302170623727     0.8350696708479198
3.63E9                   0.08283825900352415      0.8290585280041608
3.66E9                   0.15598818660783104      0.8165072984476724
3.69E9                   0.22754403051401867      0.7975568822326896
3.72E9                   0.29695364280853553      0.7723968275459786
3.75E9                   0.36368673969787546      0.7412630765336927
3.78E9                   0.4272385539317455       0.7044354318297696
3.81E9                   0.487133172389896        0.6622347943125404
3.84E9                   0.5429265611153135       0.6150202212202209
3.87E9                   0.5942092927803232       0.5631858479051497
3.9E9                    0.6406090024738674       0.5071577044209878
3.93E9                   0.6817926022349472       0.44739044064434935
3.96E9                   0.7174682795951913       0.384363954849942
3.99E9                   0.7473872904045624       0.31857990672126174
4.02E9                   0.7713455354781271       0.2505580921022899
4.05E9                   0.7891848909841102       0.18083266504344828
4.08E9                   0.800794250349108        0.10994821010808838
4.11E9                   0.806110234171311        0.03845568869770667
4.14E9                   0.8051175336079365       -0.03309169885390193
4.17E9                   0.7978488683437356       -0.10414268285175128
4.2E9                    0.7843845577376304       -0.17415207089949147
4.23E9                   0.7648517186846917       -0.24258482249712904
4.26E9                   0.7394231132115462       -0.308920012973735
4.29E9                   0.7083156718556861       -0.37265465964043615
4.32E9                   0.6717887163189951       -0.43330739273556074
4.35E9                   0.6301418990524645       -0.4904219590206797
4.38E9                   0.5837128712529961       -0.5435705464487753
4.41E9                   0.5328746866651735       -0.592356915127732
4.44E9                   0.47803294788509343      -0.6364193149255621
4.47E9                   0.419622704550452        -0.6754331654785068
4.5E9                    0.35810511783499543      -0.7091134716490618
4.53E9                   0.2939639119156892       -0.7372169471234709
4.56E9                   0.22770163920594141      -0.759543821006776
4.59E9                   0.1598357914868876       -0.7759393065605389
4.62E9                   0.09089479262899136      -0.7862947172570798
4.65E9                   0.02141390976896336      -0.7905482222867306
4.68E9                   -0.048068881884970875    -0.7886852402948095
4.71E9                   -0.11701704971217364     -0.7807384747917512
4.74E9                   -0.18489964421207683     -0.7667875959127617
4.77E9                   -0.25119540778733546     -0.7469585706935372
4.8E9                    -0.3153968303290793      -0.7214226392544424
4.83E9                   -0.37701412558795444     -0.6903949301672239
4.86E9                   -0.4355790940477521      -0.6541327079809822
4.89E9                   -0.49064882913073404     -0.6129332511138829
4.92E9                   -0.541809217278375       -0.567131368758036
4.95E9                   -0.5886781813572406      -0.5170965788430103
4.98E9                   -0.6309086216210971      -0.4632299825846293
5.01E9                   -0.6681910185005259      -0.4059608820203877
5.04E9                   -0.7002556752939499      -0.34574319293837413
5.07E9                   -0.7268745938169405      -0.2830517055673117
5.1E9                    -0.7478629893778471      -0.21837823866602823
5.13E9                   -0.7630804594330884      -0.1522277206726993
5.16E9                   -0.7724318201569401      -0.08511421762276532
5.19E9                   -0.7758676163895681      -0.017556917147125595
5.22E9                   -0.7733842964868144      0.049923923562531475
5.25E9                   -0.7650240315642747      0.11681104816464172
5.28E9                   -0.7508741562180943      0.18259425457048836
5.31E9                   -0.7310662186910791      0.2467743787942902
5.34E9                   -0.705774649363565       0.30886714919520686
5.37E9                   -0.6752150785445958      0.3684068575866744
5.4E9                    -0.6396423484160618      0.4249498115493957
5.43E9                   -0.5993482649593148      0.47807755329007967
5.46E9                   -0.5546591255109478      0.5273998461736757
5.49E9                   -0.505933042324125       0.5725574358953063
5.52E9                   -0.45355706882500924     0.6132245892986101
5.55E9                   -0.39794412756320474     0.6491114034891461
5.58E9                   -0.33952973858524527     0.6799658654636885
5.61E9                   -0.2787685536280155      0.7055756314555505
5.64E9                   -0.2161307136248011      0.7257694882247244
5.67E9                   -0.152098062794933       0.7404184576342263
5.7E9                    -0.08716026927926955     0.7494365130602477
5.73E9                   -0.021810915277169763    0.7527808923389812
5.76E9                   0.0434563765472058       0.7504520147548437
5.79E9                   0.10815172310366138      0.7424930324008119
5.82E9                   0.1717926308754942       0.7289890600486042
5.85E9                   0.23390750332292481      0.7100661265384325
5.88E9                   0.29403900944003464      0.68588987635894
5.91E9                   0.3517473198448142       0.6566640312041354
5.94E9                   0.4066132072407017       0.6226286078151351
5.97E9                   0.4582409938902341       0.58405788531645
6.0E9                    0.506261316965448        0.5412581215314155
