% Model:              three_layers reality at 0.1mm.mph
% Version:            COMSOL 5.6.0.280
% Date:               Feb 21 2022, 17:14
% Table:              表格 1 - 全局计算 1
% freq (Hz)              real(emw.S11) (1)        imag(emw.S11) (1)
300000000                0.5341875702054992       -0.7268345384489474
330000000                0.4653704417933405       -0.7710237281866325
360000000                0.393037856601711        -0.8088478420335726
390000000                0.3177548064050445       -0.8400182372206988
420000000                0.24011473868355182      -0.864297823378713
450000000                0.16073369670497828      -0.8815034990495099
480000000                0.08024462511998216      -0.89150809620575
510000000                -7.082630363242971E-4    -0.8942418303453277
540000000                -0.08147510015415663     -0.8896932498635046
570000000                -0.16140596786872338     -0.8779096779926473
600000000                -0.23985647773566773     -0.8589971412637439
630000000                -0.3161933027381677      -0.8331197809119696
660000000                -0.3897996251048477      -0.8004987468446239
690000000                -0.4600804596466966      -0.7614105779639762
720000000                -0.5264678088960396      -0.7161850771534213
750000000                -0.5884256038189087      -0.6652026944738081
780000000                -0.6454543836800122      -0.6088914372280511
810000000                -0.6970956686720332      -0.5477233312847136
840000000                -0.7429359808237719      -0.48221046325754524
870000000                -0.7826104709180449      -0.4129006385796654
900000000                -0.8158061124946298      -0.34037269557843336
930000000                -0.8422644282497451      -0.26523152007164746
960000000                -0.8617837187261232      -0.18810280946652821
990000000                -0.8742207688240768      -0.10962763850902657
1020000000               -0.8794920134503125      -0.030456881764544128
1050000000               -0.8775741499482056      0.048754449963458485
1080000000               -0.8685041915749191      0.12735290121971785
1110000000               -0.8523789629010324      0.20469223286438265
1140000000               -0.8293540447559393      0.28013899437334117
1170000000               -0.7996421828443485      0.35307795112600027
1200000000               -0.7635111804717207      0.42291731227885987
1230000000               -0.7212813016497726      0.48909370815557934
1260000000               -0.6733222163311843      0.551076869570272
1290000000               -0.6200495242002365      0.6083739661665577
1320000000               -0.5619208977458942      0.6605335654035754
1350000000               -0.49943188859369303     0.707149179403222
1380000000               -0.4331114439370379      0.7478623721632671
1410000000               -0.3635171816084431      0.7823654056039504
1440000000               -0.291230473640507       0.810403408509859
1470000000               -0.2168513884750377      0.8317760582507362
1500000000               -0.1409935416749745      0.8463387706955174
1530000000               -0.06427890409044501     0.8540033990246152
1560000000               0.012667385136822596     0.8547384471467325
1590000000               0.08922215544922701      0.8485688080003135
1620000000               0.1647692486238606       0.8355750411539987
1650000000               0.23870442946747145      0.815892207819832
1680000000               0.31044012638294005      0.789708284546094
1710000000               0.3794099680934897       0.7572621795722532
1740000000               0.44507308611619223      0.7188413780312519
1770000000               0.5069181560377274       0.6747792439256514
1800000000               0.5644671539041326       0.6254520081616071
1830000000               0.6172788074956369       0.5712754728032747
1860000000               0.6649517253021223       0.5127014623733798
1890000000               0.7071271892800667       0.4502140532014897
1920000000               0.7434916003199086       0.3843256119169174
1950000000               0.7737785683522169       0.3155726737909099
1980000000               0.7977706417593599       0.24451169114163435
2010000000               0.8153006735695293       0.1717146810079808
2040000000               0.826252824571882        0.09776479978999013
2070000000               0.8305632059527192       0.023251870234360546
2100000000               0.8282201658472221       -0.051232117301574315
2130000000               0.819264224502976        -0.1250975124972875
2.16E9                   0.8037876596859252       -0.19776151119494723
2.19E9                   0.781933735011522        -0.26865265594159976
2.22E9                   0.7538955460993666       -0.33721532856047914
2.25E9                   0.7199144330118031       -0.4029142196474591
2.28E9                   0.6802778824209721       -0.46523871924481713
2.31E9                   0.6353168474815502       -0.5237070975535547
2.34E9                   0.5854024903679765       -0.5778702579922543
2.37E9                   0.5309425200834416       -0.6273148248479403
2.4E9                    0.4723774817376827       -0.6716654709219737
2.43E9                   0.41017737651600633      -0.7105866901936765
2.46E9                   0.34483873267723236      -0.7437844725749256
2.49E9                   0.27688185076400185      -0.7710082849682891
2.52E9                   0.20684774122922037      -0.7920534075807084
2.55E9                   0.1352944193765966       -0.806763316567296
2.58E9                   0.06279254433468733      -0.8150317073128349
2.61E9                   -0.010079382113007896    -0.816803896542054
2.64E9                   -0.0827399997008012      -0.8120775398908564
2.67E9                   -0.15461007315204453     -0.8009027234651296
2.7E9                    -0.2251173805277257      -0.7833815191687878
2.73E9                   -0.29370146879896275     -0.7596670760211304
2.76E9                   -0.3598182613945737      -0.7299622917598265
2.79E9                   -0.4229445046446143      -0.6945180883578729
2.82E9                   -0.48258203421533186     -0.6536313048051967
2.85E9                   -0.5382618360736396      -0.6076422180076835
2.88E9                   -0.5895478717443714      -0.5569317046660599
2.91E9                   -0.6360406352031537      -0.5019180610634616
2.94E9                   -0.6773804081935588      -0.4430535026174153
2.97E9                   -0.7132501819518531      -0.3808203698305801
3.0E9                    -0.7433782155215767      -0.3157270719077013
3.03E9                   -0.7675402040440844      -0.24830380334223667
3.06E9                   -0.7855610342909544      -0.17909807229268437
3.09E9                   -0.7973161091322822      -0.10867008244173404
3.12E9                   -0.8027322274999378      -0.03758801214748939
3.15E9                   -0.8017880115341941      0.03357676388290303
3.18E9                   -0.7945138778547939      0.10425446465718041
3.21E9                   -0.7809915550538243      0.1738816591533121
3.24E9                   -0.7613531544091394      0.2419059442518887
3.27E9                   -0.7357798052687484      0.3077905013585811
3.3E9                    -0.7044998704999502      0.3710184907046012
3.33E9                   -0.6677867608100291      0.4310972444421859
3.36E9                   -0.6259563697377242      0.4875622217154705
3.39E9                   -0.5793641539645872      0.5399806907249749
3.42E9                   -0.5284018864394376      0.5879551045593903
3.45E9                   -0.4734941131080557      0.6311261390885244
3.48E9                   -0.41509434791309285     0.6691753630831754
3.51E9                   -0.35368104532665057     0.7018275132755862
3.54E9                   -0.2897533947471908      0.7288523509663104
3.57E9                   -0.22382698613828797     0.7500660825118466
3.6E9                    -0.15642940021600468     0.7653323338327365
3.63E9                   -0.08809577840323685     0.7745626784864836
3.66E9                   -0.019364426735565845    0.7777167289201026
3.69E9                   0.04922749580230992      0.7748018098203496
3.72E9                   0.11714815997515943      0.7658722401862466
3.75E9                   0.18387508239124772      0.7510282565759335
3.78E9                   0.24889894492898962      0.7304146144798269
3.81E9                   0.3117271960152843       0.7042189082674051
3.84E9                   0.3718874227963763       0.6726696518574741
3.87E9                   0.4289304954591211       0.636034160180241
3.9E9                    0.48243349677660174      0.594616263635193
3.93E9                   0.5320024574363696       0.5487538738979318
3.96E9                   0.577274916992236        0.49881640260667837
3.99E9                   0.6179223202224986       0.44520201992150943
4.02E9                   0.6536522417119678       0.3883347332050458
4.05E9                   0.6842104133303946       0.3286612697791784
4.08E9                   0.7093825158703524       0.26664776078198177
4.11E9                   0.7289956916059683       0.2027762410139994
4.14E9                   0.7429197393979546       0.13754099702992661
4.17E9                   0.7510679660388544       0.07144480784802508
4.2E9                    0.7533976827066535       0.004995127544256099
4.23E9                   0.749910349724814        -0.061299743371378536
4.26E9                   0.7406513831807697       -0.12693445849524054
4.29E9                   0.725709641801993        -0.19141036860648636
4.32E9                   0.7052166119982503       -0.25423918694551284
4.35E9                   0.6793453048211362       -0.3149465623102323
4.38E9                   0.6483088732052725       -0.3730755473267732
4.41E9                   0.6123589536368303       -0.42818994731781274
4.44E9                   0.571783734824686        -0.4798775311453656
4.47E9                   0.5269057573948791       -0.527753080975037
4.5E9                    0.4780794524549958       -0.5714612547248733
4.53E9                   0.42568843214053786      -0.6106792335616286
4.56E9                   0.3701425509098492       -0.6451191276336795
4.59E9                   0.31187476162144545      -0.6745301160247138
4.62E9                   0.25133779446978455      -0.6987003015207954
4.65E9                   0.18900068899204037      -0.7174582665668293
4.68E9                   0.12534520887695885      -0.7306743228147555
4.71E9                   0.060862166274072926     -0.7382614513017334
4.74E9                   -0.003952322293511479    -0.7401759321114426
4.77E9                   -0.06860063027531318     -0.7364176605262704
4.8E9                    -0.13258744860883934     -0.72703014215936
4.83E9                   -0.19542362581889405     -0.7121001547009129
4.86E9                   -0.25662999274071296     -0.6917570618021274
4.89E9                   -0.3157411346909008      -0.6661717673091574
4.92E9                   -0.37230906614330594     -0.635555305890248
4.95E9                   -0.42590675901951525     -0.6001570776023469
4.98E9                   -0.47613147703136277     -0.5602627466807121
5.01E9                   -0.5226078748867987      -0.5161918363485308
5.04E9                   -0.5649908317895892      -0.4682950594979667
5.07E9                   -0.602968001602367       -0.4169514280509776
5.1E9                    -0.6362620747260335      -0.36256518068386273
5.13E9                   -0.6646327559406694      -0.3055625596848267
5.16E9                   -0.6878784647378067      -0.24638845562003128
5.19E9                   -0.7058377587012218      -0.18550292770145116
5.22E9                   -0.7183904680398199      -0.12337760405931619
5.25E9                   -0.7254585164389937      -0.060491972847539155
5.28E9                   -0.7270063975072131      0.0026704090423293296
5.31E9                   -0.7230412823117174      0.0656257447908317
5.34E9                   -0.7136127508020874      0.12789380758180188
5.37E9                   -0.6988121612719523      0.18900167614926994
5.4E9                    -0.6787716884103007      0.24848735325685462
5.43E9                   -0.6536630659718307      0.3059032428362022
5.46E9                   -0.6236960644786406      0.3608194775695697
5.49E9                   -0.5891167220567927      0.412827097015077
5.52E9                   -0.5502053335852223      0.46154107540695455
5.55E9                   -0.5072741944321121      0.5066031903972456
5.58E9                   -0.46066509249297616     0.547684712550167
5.61E9                   -0.41074654624641405     0.5844888838826989
5.64E9                   -0.3579107964932895      0.6167531446135796
5.67E9                   -0.3025705740364652      0.6442510631034838
5.7E9                    -0.2451556828078461      0.6667939269711585
5.73E9                   -0.1861094537746933      0.6842319655022759
5.76E9                   -0.1258851336641907      0.6964551937710655
5.79E9                   -0.06494226916776284     0.7033938921040405
5.82E9                   -0.003743131360144858    0.7050187520105715
5.85E9                   0.057250796869545796     0.7013407241464064
5.88E9                   0.11758226558914978      0.6924105946066568
5.91E9                   0.17680163636201007      0.6783182994375075
5.94E9                   0.2344701903219818       0.6591919731773896
5.97E9                   0.29016334923493015      0.6351967216816807
6.0E9                    0.3434737809335566       0.6065331130088814
