% Model:              three_layers reality at 0.1mm.mph
% Version:            COMSOL 5.6.0.280
% Date:               Mar 10 2022, 16:14
% Table:              表格 1 - 全局计算 1
% freq (Hz)              real(emw.S11) (1)        imag(emw.S11) (1)
300000000                0.4607336950566605       -0.7571201927082992
330000000                0.3836101119828927       -0.7953220806878216
360000000                0.3036078742367712       -0.8259469853229149
390000000                0.22141904685336478      -0.8487737962861215
420000000                0.13776383701888745      -0.8636455471216659
450000000                0.05338137381410544      -0.8704732150174135
480000000                -0.030979012953598686    -0.8692380330523651
510000000                -0.11456612990600235     -0.8599925971571255
540000000                -0.19663492704191318     -0.8428609427145628
570000000                -0.2764541876398418      -0.8180377067221543
600000000                -0.3533138884511641      -0.7857864599215817
630000000                -0.4265322038438793      -0.7464372760398099
660000000                -0.49546211703814996     -0.7003835973813025
690000000                -0.5594975981299133      -0.6480784526282111
720000000                -0.6180793064875916      -0.59003008263037
750000000                -0.6706997766557337      -0.5267970309030684
780000000                -0.7169080486335467      -0.4589827580135958
810000000                -0.7563137077277051      -0.38722984116255804
840000000                -0.7885903035871011      -0.3122138225045052
870000000                -0.8134781232745714      -0.23463677216828882
900000000                -0.8307862994176484      -0.1552206329376265
930000000                -0.8403942404224903      -0.07470041525824915
960000000                -0.8422523764347958      0.006182688877407324
990000000                -0.8363822211897998      0.08668820435403514
1020000000               -0.822875756561233       0.1660832159030206
1050000000               -0.8018941530891184      0.24364908936803215
1080000000               -0.7736658461221908      0.31868800698799515
1110000000               -0.7384839932280738      0.39052925531674343
1140000000               -0.6967033442922261      0.4585352076701396
1170000000               -0.6487365610510557      0.5221069468745346
1200000000               -0.5950500276155549      0.58068947849115
1230000000               -0.5361591979328882      0.6337764894594082
1260000000               -0.4726235300044781      0.6809146122031984
1290000000               -0.40504105972547805     0.7217071598858196
1320000000               -0.3340426701475903      0.7558173039415464
1350000000               -0.26028611353698444     0.7829706712208975
1380000000               -0.1844498455107516      0.8029573436797034
1410000000               -0.10722673088180255     0.8156332498691772
1440000000               -0.029317681244680927    0.820920943279165
1470000000               0.04857471618198979      0.8188097685284179
1500000000               0.1257525198325757       0.8093554221337009
1530000000               0.20152864825046884      0.7926789201354045
1560000000               0.2752329326434779       0.7689649901368761
1590000000               0.34621795514294756      0.7384599103506221
1620000000               0.41386462317975037      0.7014688229097867
1650000000               0.4775874338257582       0.6583525530732817
1680000000               0.5368393857101069       0.609523969859524
1710000000               0.59111650002803         0.5554439272993777
1740000000               0.6399619167429048       0.4966168285420192
1770000000               0.6829695365843339       0.4335858578608289
1800000000               0.7197871845336472       0.3669279277707759
1830000000               0.7501192756939784       0.29724839031400047
1860000000               0.7737289700895421       0.2251755627132202
1890000000               0.7904398089958363       0.15135511802943316
1920000000               0.8001368317712416       0.07644439127772068
1950000000               0.8027671792485436       0.001106649592542568
1980000000               0.7983401971299795       -0.0739946282534482
2010000000               0.7869270605189289       -0.1482014239032308
2040000000               0.7686599477591909       -0.22086677425015316
2070000000               0.743730796223327        -0.2913602762914433
2100000000               0.7123896704359368       -0.35907351294903267
2130000000               0.6749427563602431       -0.42342544209082994
2.16E9                   0.631749952428595        -0.483867825215987
2.19E9                   0.583221942561185        -0.5398907918820103
2.22E9                   0.5298164999143609       -0.591028601168876
2.25E9                   0.47203360626803903      -0.6368655046380676
2.28E9                   0.41040888464767566      -0.6770412637252067
2.31E9                   0.3455050481937198       -0.7112553465249664
2.34E9                   0.2779018126129373       -0.7392683947580203
2.37E9                   0.2081859509990034       -0.7608998025693944
2.4E9                    0.13694413233593147      -0.7760216977444447
2.43E9                   0.0647606351191417       -0.7845518077745823
2.46E9                   -0.007780425225883115    -0.7864488893368153
2.49E9                   -0.08009146363463843     -0.7817130919559252
2.52E9                   -0.1515801634517626      -0.7703905808703334
2.55E9                   -0.2216524886851322      -0.7525794839690808
2.58E9                   -0.2897193292603443      -0.7284342553047642
2.61E9                   -0.355204818020183       -0.6981671079057845
2.64E9                   -0.41755452970425816     -0.66204669178091
2.67E9                   -0.47624260328985524     -0.6203948897476386
2.7E9                    -0.5307775618600173      -0.5735825988325887
2.73E9                   -0.5807069831766434      -0.5220250764504912
2.76E9                   -0.6256212737877016      -0.46617714493136075
2.79E9                   -0.6651567626257635      -0.40652836345501364
2.82E9                   -0.698998257407613       -0.34359818605906045
2.85E9                   -0.7268811430872788      -0.27793109341579003
2.88E9                   -0.7485930578677586      -0.21009168447053833
2.91E9                   -0.7639751569711575      -0.14065972346330455
2.94E9                   -0.7729229617651164      -0.07022514974088444
2.97E9                   -0.7753867874045124      6.169318056440551E-4
3.0E9                    -0.7713717423620552      0.0712712536296936
3.03E9                   -0.760937296113492       0.14114734988729355
3.06E9                   -0.7441964155947162      0.20966444677725118
3.09E9                   -0.7213142760976317      0.2762562415380882
3.12E9                   -0.6925065575143834      0.34037553275820254
3.15E9                   -0.6580373417841673      0.4014986661934023
3.18E9                   -0.6182166314543984      0.4591297632484497
3.21E9                   -0.5733975119569271      0.5128047032030781
3.24E9                   -0.5239729810317915      0.5620948344686799
3.27E9                   -0.4703724677192427      0.6066103936274649
3.3E9                    -0.413058060727399       0.6460036128446554
3.33E9                   -0.35252046291260836     0.6799714953821447
3.36E9                   -0.28927468625781966     0.7082582352012629
3.39E9                   -0.2238555019831684      0.7306572500580417
3.42E9                   -0.1568126646492008      0.7470127893283856
3.45E9                   -0.0887059387878768      0.7572210697446331
3.48E9                   -0.02009997198670064     0.7612308871312061
3.51E9                   0.04844092117056942      0.7590436531177401
3.54E9                   0.116357977251797        0.7507128159180502
3.57E9                   0.18310309660649296      0.7363426451405455
3.6E9                    0.24814373035721948      0.7160863914358858
3.63E9                   0.31096742183745096      0.690143868155028
3.66E9                   0.3710858974172448       0.6587585372499444
3.69E9                   0.42803862820048444      0.6222142086776383
3.72E9                   0.481395816568522        0.5808314783838434
3.75E9                   0.5307607942892648       0.5349640362836429
3.78E9                   0.5757718512946219       0.48499497664385266
3.81E9                   0.6161035501129458       0.4313332400114317
3.84E9                   0.6514676243090932       0.3744103023283201
3.87E9                   0.6816136062614628       0.31467719200077604
3.9E9                    0.7063293650323111       0.2526018517247251
3.93E9                   0.7254417371769446       0.1886667748211747
3.96E9                   0.7388173866940907       0.12336675809844766
3.99E9                   0.7463639376654978       0.05720655652914093
4.02E9                   0.7480313085835459       -0.009301776155794831
4.05E9                   0.7438130766263644       -0.07564201756292864
4.08E9                   0.7337476445376713       -0.14129743255864233
4.11E9                   0.7179189860599711       -0.2057548984871158
4.14E9                   0.6964568009485245       -0.26850935353238303
4.17E9                   0.6695359955931139       -0.32906837463959077
4.2E9                    0.6373754937033511       -0.3869566910593695
4.23E9                   0.6002364510274557       -0.4417204773712488
4.26E9                   0.5584199856414245       -0.49293132848302634
4.29E9                   0.5122645385556162       -0.5401898794258105
4.32E9                   0.4621429556350114       -0.583129078296646
4.35E9                   0.4084593447189539       -0.6214171422109201
4.38E9                   0.35164572639323277      -0.6547602235780389
4.41E9                   0.292158474488145        -0.6829047945633677
4.44E9                   0.23047453750564362      -0.7056397325093586
4.47E9                   0.16708744282725868      -0.7227980681719337
4.5E9                    0.10250310540422998      -0.7342583481354135
4.53E9                   0.03723548511297423      -0.7399455640470538
4.56E9                   -0.028197843450262286    -0.7398316132153373
4.59E9                   -0.09328013189092897     -0.7339352749893135
4.62E9                   -0.1574998290589875      -0.7223217120922204
4.65E9                   -0.2203548092230765      -0.7051015316217324
4.68E9                   -0.2813564040612206      -0.6824294608139589
4.71E9                   -0.34003321364862515     -0.6545027011522087
4.74E9                   -0.3959347014824296      -0.6215590158704923
4.77E9                   -0.4486345985641744      -0.5838745810315119
4.8E9                    -0.4977341424265295      -0.5417615973709456
4.83E9                   -0.5428651561973388      -0.49556563256540154
4.86E9                   -0.5836929374446167      -0.44566265424091034
4.89E9                   -0.6199188902976567      -0.392455728474776
4.92E9                   -0.6512828111187434      -0.3363713928773078
4.95E9                   -0.6775647361820187      -0.2778557570503191
4.98E9                   -0.6985862806859744      -0.2173704238238374
5.01E9                   -0.7142114373646996      -0.15538835211843238
5.04E9                   -0.7243468523090297      -0.09238978953809274
5.07E9                   -0.7289416456780474      -0.02885838620553338
5.1E9                    -0.7279868839666891      0.034722438982546774
5.13E9                   -0.7215148257678194      0.09787286662495025
5.16E9                   -0.7095980444183828      0.16011982778580539
5.19E9                   -0.6923484784366605      0.22100002890673323
5.22E9                   -0.6699163894320312      0.28006294570790086
5.25E9                   -0.6424891463835645      0.3368738383743538
5.28E9                   -0.6102897353027512      0.39101676600517
5.31E9                   -0.573574927547983       0.4420975072534874
5.34E9                   -0.5326331138771118      0.48974626243381797
5.37E9                   -0.4877818882443661      0.5336200366584148
5.4E9                    -0.43936550826064613     0.5734046709941825
5.43E9                   -0.3877523505514801      0.6088165660227167
5.46E9                   -0.33333242726831447     0.6396041961963991
5.49E9                   -0.27651495980548957     0.6655495259213636
5.52E9                   -0.21772594403482115     0.6864694109537124
5.55E9                   -0.15740560544616536     0.7022170155784937
5.58E9                   -0.09600563803320804     0.7126832146168579
5.61E9                   -0.03398614511340092     0.717797893835249
5.64E9                   0.028187752296489954     0.7175310230731071
5.67E9                   0.09004961074280048      0.7118933617902714
5.7E9                    0.15113556653481341      0.7009366745550953
5.73E9                   0.21098829335414868      0.6847533877757959
5.76E9                   0.26916084449753586      0.6634756999714412
5.79E9                   0.32522024072151406      0.6372742401582097
5.82E9                   0.378750741107233        0.6063564171825855
5.85E9                   0.4293568231011827       0.5709645933849918
5.88E9                   0.47666595740559414      0.531374155051384
5.91E9                   0.5203312688383409       0.4878914735104831
5.94E9                   0.5600341321906047       0.4408516931644137
5.97E9                   0.5954866906206565       0.39061626651949133
6.0E9                    0.6264342321097278       0.3375701773420867
