% Model:              three_layers reality at 0.1mm.mph
% Version:            COMSOL 5.6.0.280
% Date:               Mar 10 2022, 16:03
% Table:              表格 1 - 全局计算 1
% freq (Hz)              real(emw.S11) (1)        imag(emw.S11) (1)
300000000                0.4631515324815233       -0.7621829243037929
330000000                0.3853800800040945       -0.8006528851277003
360000000                0.30471044604404884      -0.8314624438167008
390000000                0.22184345697576263      -0.8543915129582204
420000000                0.1375078422450974       -0.8692843093580603
450000000                0.05245109417191643      -0.8760533755099815
480000000                -0.032569252901317645    -0.8746820426194968
510000000                -0.11679400557617009     -0.8652256343636998
540000000                -0.19947038792361538     -0.8478115982680801
570000000                -0.2798598133337868      -0.8226386896850016
600000000                -0.357245331483479       -0.7899752989254789
630000000                -0.4309387178484964      -0.7501569938813617
660000000                -0.5002871667531109      -0.7035833407939696
690000000                -0.5646795438665665      -0.6507140625682615
720000000                -0.6235521549034067      -0.5920645926299014
750000000                -0.676393987619651       -0.5282010836874587
780000000                -0.7227513874462326      -0.45973493252580844
810000000                -0.7622321309602932      -0.38731688417469545
840000000                -0.7945088665343369      -0.3116307809354654
870000000                -0.8193218967891135      -0.23338702379893295
900000000                -0.836481283864384       -0.15331581509896514
930000000                -0.8458682646514966      -0.07216025261756952
960000000                -0.8474359701544762      0.009330654868353392
990000000                -0.8412094495332806      0.09040898035079885
1020000000               -0.827285006392877       0.17033481046683285
1050000000               -0.8058288613951409      0.24838304938339212
1080000000               -0.777075161759608       0.3238500289333363
1110000000               -0.7413233643595083      0.39605986311414554
1140000000               -0.6989350249449116      0.4643704878167005
1170000000               -0.6503300314092622      0.5281793310738888
1200000000               -0.5959823238447719      0.5869285635962597
1230000000               -0.5364151487213954      0.6401098839844996
1260000000               -0.4721958980671397      0.687268798861103
1290000000               -0.4039305879630276      0.7280083633145117
1320000000               -0.33225803313045105     0.7619923531843058
1350000000               -0.2578437764256852      0.7889478465494473
1380000000               -0.1813738334225425      0.808667197986983
1410000000               -0.1035483127919953      0.8210093952549112
1440000000               -0.02507497355036499     0.8259007941154253
1470000000               0.0533372205222582       0.8233352330236281
1500000000               0.13098448992561523      0.8133735352118985
1530000000               0.20717451433517908      0.7961424113044181
1560000000               0.28123253769775797      0.7718327809454624
1590000000               0.3525072507726087       0.7406975369712072
1620000000               0.42037640115945885      0.7030487803795347
1650000000               0.48425208451906165      0.6592545586880586
1680000000               0.5435856744652471       0.6097351442120679
1710000000               0.5978723526827049       0.5549588924233219
1740000000               0.6466552054839352       0.49543772357567345
1770000000               0.6895288576822374       0.43172227350814096
1800000000               0.7261426196969364       0.36439676180166947
1830000000               0.7562031292651906       0.29407362710325824
1860000000               0.7794764748199765       0.2213879805292367
1890000000               0.7957897936328892       0.1469919286508997
1920000000               0.805032344453608        0.07154881691083707
1950000000               0.807156061397188        -0.004272557217601674
1980000000               0.8021756034109071       -0.07980371579473368
2010000000               0.7901679213594616       -0.15438221729149454
2040000000               0.771271371909445        -0.22735729004793975
2070000000               0.7456844118778975       -0.2980953698687512
2100000000               0.713663904344108        -0.3659855534759978
2130000000               0.6755230509237905       -0.43044501139961605
2.16E9                   0.6316289205213658       -0.4909244387769466
2.19E9                   0.5823994580500699       -0.5469136423352642
2.22E9                   0.5282997175829831       -0.5979473267143448
2.25E9                   0.4698368978953855       -0.6436109833498695
2.28E9                   0.4075536692467505       -0.6835464279823737
2.31E9                   0.3420194895571559       -0.7174559953927213
2.34E9                   0.273820364994711        -0.7451039587471088
2.37E9                   0.20354876273595668      -0.766313996080761
2.4E9                    0.13179636228121935      -0.7809630005901111
2.43E9                   0.05915177237552847      -0.7889737606876217
2.46E9                   -0.013797155146995622    -0.7903102523723622
2.49E9                   -0.08645957698975355     -0.7849779555893126
2.52E9                   -0.1582403172041179      -0.7730285081343591
2.55E9                   -0.22854286950676495     -0.7545657116520701
2.58E9                   -0.29677609110216985     -0.729749932632763
2.61E9                   -0.3623625936041001      -0.6987995283954922
2.64E9                   -0.42474701081468313     -0.6619894774895343
2.67E9                   -0.48340316917059206     -0.619648102444594
2.7E9                    -0.5378399316813723      -0.5721527678365671
2.73E9                   -0.5876058720291962      -0.5199251429267376
2.76E9                   -0.6322930366685897      -0.4634263275628523
2.79E9                   -0.6715400153365998      -0.4031519522282778
2.82E9                   -0.7050344664879467      -0.33962727108706964
2.85E9                   -0.7325151788251326      -0.2734022354665208
2.88E9                   -0.7537737058560613      -0.2050465332345789
2.91E9                   -0.7686555843605521      -0.1351445893941586
2.94E9                   -0.7770611349832006      -0.0642905350093496
2.97E9                   -0.7789458385703845      0.006916837768282687
3.0E9                    -0.7743202820158116      0.07787910848423113
3.03E9                   -0.7632496703546607      0.1480032171107272
3.06E9                   -0.7458529061504088      0.21670637313428812
3.09E9                   -0.7223012423449449      0.2834208476424244
3.12E9                   -0.6928165200138855      0.3475986110040523
3.15E9                   -0.6576690074059348      0.40871578042763723
3.18E9                   -0.6171748607171796      0.4662768446516533
3.21E9                   -0.5716932297369788      0.51981863698512
3.24E9                   -0.5216230322190889      0.5689140323145497
3.27E9                   -0.4673994198320126      0.6131753470459831
3.3E9                    -0.4094899557387363      0.6522574229400983
3.33E9                   -0.3483905207845759      0.6858603748103972
3.36E9                   -0.2846209628327518      0.7137319782693807
3.39E9                   -0.21872050398624332     0.735669667052803
3.42E9                   -0.15124292479004817     0.7515221011170733
3.45E9                   -0.08275155424030274     0.7611902586311539
3.48E9                   -0.013814110064681097    0.7646279998110691
3.51E9                   0.05500254565142644      0.7618420515863683
3.54E9                   0.12313764740994843      0.7528913723352679
3.57E9                   0.19004165523469396      0.7378858772023708
3.6E9                    0.2551811503556351       0.7169845357134383
3.63E9                   0.3180433769585751       0.6903928902241606
3.66E9                   0.37814032445677503      0.6583600790890509
3.69E9                   0.4350122718347052       0.6211754756391482
3.72E9                   0.48823074859099286      0.5791650697986284
3.75E9                   0.5374008999660745       0.5326877254071974
3.78E9                   0.5821632769437758       0.48213144700667
3.81E9                   0.6221951077501843       0.4279097863421966
3.84E9                   0.6572111513165478       0.37045850491284726
3.87E9                   0.6869642805635174       0.3102325732611487
3.9E9                    0.7112459787375546       0.24770352291220937
3.93E9                   0.7298869337613287       0.1833570786492469
3.96E9                   0.742757867866353        0.11769091032849888
3.99E9                   0.7497706457222748       0.05121228647628939
4.02E9                   0.7508795883485988       -0.015564588772687057
4.05E9                   0.7460828184224237       -0.08212171334544366
4.08E9                   0.7354234067848126       -0.14794095447858757
4.11E9                   0.7189900938191066       -0.21250818765235926
4.14E9                   0.6969174154955632       -0.2753177587699237
4.17E9                   0.6693851500784362       -0.33587707370131037
4.2E9                    0.6366170909457751       -0.39371111928862396
4.23E9                   0.5988792210923235       -0.4483667584922157
4.26E9                   0.5564774025502309       -0.4994167019204914
4.29E9                   0.5097546969440307       -0.5464631189215278
4.32E9                   0.45908840908446397      -0.5891408974214981
4.35E9                   0.4048869078784929       -0.6271205832235864
4.38E9                   0.34758624298796886      -0.6601110267367005
4.41E9                   0.28764655308797915      -0.6878617453361073
4.44E9                   0.22554825682760724      -0.7101649841026428
4.47E9                   0.16178802831022862      -0.7268574366893175
4.5E9                    0.09687457918165077      -0.7378215774060413
4.53E9                   0.031324291945043825     -0.7429865571316644
4.56E9                   -0.03434323105354462     -0.7423286277008689
4.59E9                   -0.09960962548879931     -0.7358710795576372
4.62E9                   -0.16396214859706096     -0.7236837024992062
4.65E9                   -0.22689791512080568     -0.7058818050410122
4.68E9                   -0.28792793230690317     -0.6826248484197961
4.71E9                   -0.34658090946525055     -0.6541147596388076
4.74E9                   -0.40240684771559343     -0.6205939791688964
4.77E9                   -0.45498043558364193     -0.5823432736706636
4.8E9                    -0.503904276820636       -0.5396793107941247
4.83E9                   -0.5488119556828951      -0.4929519653584893
4.86E9                   -0.5893709091568167      -0.4425413170059502
4.89E9                   -0.6252850391322474      -0.38885431410204074
4.92E9                   -0.6562969742183177      -0.3323211134746721
4.95E9                   -0.6821898893357826      -0.2733911496452521
4.98E9                   -0.7027888124672956      -0.2125290280779887
5.01E9                   -0.7179613873914579      -0.15021036441396646
5.04E9                   -0.7276181110564076      -0.08691769870839855
5.07E9                   -0.7317121146309425      -0.0231365966304695
5.1E9                    -0.7302385963985962      0.04064799132092131
5.13E9                   -0.7232340296916009      0.1039551002599235
5.16E9                   -0.7107752500385462      0.16631090040906715
5.19E9                   -0.6929784724617349      0.22725171813860512
5.22E9                   -0.6699982180075303      0.28632702457717135
5.25E9                   -0.6420260674759861      0.34310244433751097
5.28E9                   -0.6092891406163152      0.3971627618555593
5.31E9                   -0.5720482339780782      0.4481148313737102
5.34E9                   -0.5305956251639636      0.49559026503659975
5.37E9                   -0.48525262866952235     0.5392477984764558
5.4E9                    -0.43636703138378297     0.5787753014407478
5.43E9                   -0.3843105266554867      0.6138914790317671
5.46E9                   -0.32947621311853664     0.6443473632473268
5.49E9                   -0.27227615363863106     0.6699277068100886
5.52E9                   -0.21313892760030673     0.6904523633559131
5.55E9                   -0.15250707386482176     0.7057776843001339
5.58E9                   -0.09083431742218764     0.7157979007732891
5.61E9                   -0.028582497621553318    0.7204464032178184
5.64E9                   0.03378183615256756      0.719696791934899
5.67E9                   0.09579113176459231      0.713563557465273
5.7E9                    0.15698074661022743      0.7021022679966195
5.73E9                   0.21689291209752729      0.6854091954580113
5.76E9                   0.2750805784831233       0.6636203936427019
5.79E9                   0.33111100067189625      0.6369103244157889
5.82E9                   0.38456900286541257      0.6054901762541461
5.85E9                   0.43505994930697156      0.5696060093736144
5.88E9                   0.4822125079790695       0.5295367999887032
5.91E9                   0.5256812992203728       0.48559237702647406
5.94E9                   0.5651494785119191       0.4381111868215585
5.97E9                   0.6003312406571841       0.3874578052867583
6.0E9                    0.6309741802980806       0.3340201384949287
