% Model:              three_layers reality at 0.1mm.mph
% Version:            COMSOL 5.6.0.280
% Date:               Mar 9 2022, 09:52
% Table:              表格 1 - 全局计算 1
% freq (Hz)              real(emw.S11) (1)        imag(emw.S11) (1)
300000000                0.5758046149226141       -0.7659442706668003
330000000                0.5033591579384101       -0.8141178638082653
360000000                0.42708071448318813      -0.8555400602272881
390000000                0.3475464716114145       -0.8899163777145711
420000000                0.26537213338177335      -0.9169959062087195
450000000                0.18120679342391402      -0.9365767351344584
480000000                0.0957199357789051       -0.9485132477844044
510000000                0.009594029665935545     -0.952718863927699
540000000                -0.07648095090939933     -0.9491676077637909
570000000                -0.16181326487430178     -0.9378950782757679
600000000                -0.2457152139182288      -0.918998807428149
630000000                -0.32750897405235035     -0.8926380175351168
660000000                -0.4065323944858932      -0.8590327865883313
690000000                -0.48214470978441704     -0.8184626319383259
720000000                -0.5537321111407575      -0.7712645245036198
750000000                -0.6207131214579795      -0.7178303501560633
780000000                -0.682543719771895       -0.6586038391158333
810000000                -0.738722162028254       -0.5940769892750076
840000000                -0.7887934466928921      -0.5247860149114113
870000000                -0.8323533765240022      -0.45130685785516855
900000000                -0.8690521714739428      -0.37425030326791653
930000000                -0.8985975919998769      -0.2942567476651203
960000000                -0.9207575374803556      -0.2119906707884335
990000000                -0.9353620896271106      -0.12813486806959237
1020000000               -0.9423049780258124      -0.04338450228207477
1050000000               -0.941544451013638       0.04155896293819355
1080000000               -0.933103542836316       0.12599388499539518
1110000000               -0.9170697352333002      0.20922455487337777
1140000000               -0.8935940188647029      0.29056723695152026
1170000000               -0.8628893675877478      0.3693560734114885
1200000000               -0.8252286455679894      0.44494879260962866
1230000000               -0.7809419735488082      0.5167321650366407
1260000000               -0.7304135875498856      0.58412715240565
1290000000               -0.6740782276847006      0.6465937023919905
1320000000               -0.6124171005705308      0.7036351448422429
1350000000               -0.5459534623531467      0.7548021520277631
1380000000               -0.4752478723983177      0.7996962314211711
1410000000               -0.40089317051360607     0.837972725486504
1440000000               -0.3235092314252519      0.8693432997438338
1470000000               -0.24373755136957653     0.8935779063723546
1500000000               -0.16223572120913288     0.910506216969575
1530000000               -0.07967183938335083     0.920018524060263
1560000000               0.0032810831399999077    0.9220661162595856
1590000000               0.08595067616914563      0.9166611373268844
1620000000               0.1676706749070098       0.9038759439346077
1650000000               0.24778625191096104      0.8838419810040623
1680000000               0.3256591753833471       0.8567481970256223
1710000000               0.40067275707147054      0.822839024863024
1740000000               0.4722365562935128       0.78241195572278
1770000000               0.5397908100718306       0.7358147362676704
1800000000               0.602810563812804        0.6834422197371888
1830000000               0.6608094795548176       0.6257329035096655
1860000000               0.7133433031020182       0.5631651854963177
1890000000               0.7600129738923492       0.496253372490132
1920000000               0.8004673648177008       0.4255434732601724
1950000000               0.834405641834433        0.35160880898543073
1980000000               0.8615792356995038       0.2750454732251586
2010000000               0.88179342050408         0.1964676731818622
2040000000               0.8949084958154441       0.11650298285816599
2070000000               0.9008405708587173       0.035787539306913675
2100000000               0.8995619513810728       -0.04503878929504985
2130000000               0.8911011310591164       -0.12533723341474218
2.16E9                   0.875542391205827        -0.2044749224447296
2.19E9                   0.853025013978352        -0.2818296266077917
2.22E9                   0.8237421158251697       -0.35679441419232333
2.25E9                   0.787939109508303        -0.4287821974208093
2.28E9                   0.7459118042871804       -0.49723014249040276
2.31E9                   0.6980041547826947       -0.5616039204716635
2.34E9                   0.6446056693260094       -0.6214017778587533
2.37E9                   0.5861484866647503       -0.676158408253619
2.4E9                    0.5231041265108978       -0.7254486072921135
2.43E9                   0.45597991233326207      -0.7688906915701443
2.46E9                   0.3853150559400719       -0.8061496539881216
2.49E9                   0.3116763875777684       -0.8369400082325014
2.52E9                   0.23565372249826258      -0.8610282433154517
2.55E9                   0.1578548908704651       -0.8782347734803738
2.58E9                   0.07890053154674065      -0.8884352562631824
2.61E9                   -5.811573217496147E-4    -0.8915612016727451
2.64E9                   -0.0799594706412016      -0.8875999262772529
2.67E9                   -0.15860588109716078     -0.8765940648419388
2.7E9                    -0.23589837853301887     -0.8586409207612707
2.73E9                   -0.3112256825502196      -0.8338918292804385
2.76E9                   -0.38399159553764317     -0.8025514829957067
2.79E9                   -0.4536196320182277      -0.7648769918073851
2.82E9                   -0.5195578607813839      -0.7211764314507163
2.85E9                   -0.5812837698768734      -0.6718067443601938
2.88E9                   -0.6383089502042308      -0.6171709897451754
2.91E9                   -0.6901834499212985      -0.5577150225917088
2.94E9                   -0.7364997189735443      -0.4939237041176977
2.97E9                   -0.7768961085239899      -0.42631673507534384
3.0E9                    -0.8110599115570549      -0.35544418286415164
3.03E9                   -0.8387299367542967      -0.2818817576698238
3.06E9                   -0.8596986074331222      -0.20622588411185847
3.09E9                   -0.8738135757766063      -0.12908861277017716
3.12E9                   -0.8809788432308269      -0.0510924157089921
3.15E9                   -0.8811553796102823      0.02713508694309738
3.18E9                   -0.8743612375777886      0.10496642177954303
3.21E9                   -0.8606711636363937      0.18177952848864898
3.24E9                   -0.840215712203082       0.2569629488584781
3.27E9                   -0.8131798746311834      0.32992088952398624
3.3E9                    -0.779801240359105       0.40007811166686447
3.33E9                   -0.7403677122129548      0.4668846030798074
3.36E9                   -0.6952148023933137      0.5298199909982468
3.39E9                   -0.6447225397090881      0.5883976574154081
3.42E9                   -0.5893120220585087      0.6421685226307527
3.45E9                   -0.5294416513770978      0.6907244664605593
3.48E9                   -0.4656030906449597      0.7337013612910122
3.51E9                   -0.39831698491754297     0.770781695330634
3.54E9                   -0.3281284894852363      0.8016967695899251
3.57E9                   -0.25560264974406127     0.8262284566361509
3.6E9                    -0.18131967725738252     0.8442105145301492
3.63E9                   -0.10587016660008769     0.8555294541800476
3.66E9                   -0.029850295899984405    0.8601249634966145
3.69E9                   0.046142947241133395     0.8579898960967995
3.72E9                   0.1215164764012675       0.8491698364621648
3.75E9                   0.19568571782239275      0.8337622561972211
3.78E9                   0.2680790907672407       0.8119152780550062
3.81E9                   0.3381423273642405       0.7838260651636139
3.84E9                   0.40534260419776835      0.7497388532162698
3.87E9                   0.4691724584296022       0.709942643847565
3.9E9                    0.529153461166234        0.6647685785657367
3.93E9                   0.584839619541517        0.614587015578413
3.96E9                   0.6358204793066311       0.5598043362932322
3.99E9                   0.6817239013806575       0.5008595144272859
4.02E9                   0.7222184904133109       0.4382204873258295
4.05E9                   0.7570156619778367       0.3723803740825717
4.08E9                   0.7858713455869808       0.30385358699624254
4.11E9                   0.8085873324374259       0.23317187921637658
4.14E9                   0.8250122853288918       0.16088036307663922
4.17E9                   0.835042431502329        0.08753352186490704
4.2E9                    0.8386219556663314       0.013691227597298223
4.23E9                   0.8357431027708841       -0.06008522864858956
4.26E9                   0.8264459918196142       -0.13323708603158307
4.29E9                   0.8108181377340998       -0.20521203023631626
4.32E9                   0.7889936792720698       -0.2754680576822777
4.35E9                   0.7611523158445568       -0.34347726605723566
4.38E9                   0.7275179609013396       -0.408729551239887
4.41E9                   0.6883571211519026       -0.4707361952104916
4.44E9                   0.643977008272735        -0.5290333333959473
4.47E9                   0.5947233844438465       -0.5831852904292536
4.5E9                    0.5409781386595857       -0.6327877687972383
4.53E9                   0.4831565897334722       -0.677470867688758
4.56E9                   0.4217045154095413       -0.7169019017844779
4.59E9                   0.3570949146337874       -0.7507879841415201
4.62E9                   0.28982451968343614      -0.7788783357128416
4.65E9                   0.22041008458759814      -0.8009662864819234
4.68E9                   0.1493844843098012       -0.816890939111901
4.71E9                   0.07729266433030482      -0.8265384743148321
4.74E9                   0.004687481679258277     -0.8298430862638609
4.77E9                   -0.06787452372119755     -0.8267875444692262
4.8E9                    -0.1398373930027846      -0.8174033839040146
4.83E9                   -0.21065001864021574     -0.8017707270560313
4.86E9                   -0.2797703958776433      -0.780017740187422
4.89E9                   -0.34666983063024664     -0.7523197232648656
4.92E9                   -0.4108370768867589      -0.7188978308164219
4.95E9                   -0.4717823720199101      -0.6800174211558968
4.98E9                   -0.5290413336100693      -0.6359860344908291
5.01E9                   -0.5821786778237271      -0.5871510059244146
5.04E9                   -0.630791717712471       -0.5338967262505586
5.07E9                   -0.6745136000851563      -0.476641571061416
5.1E9                    -0.7130162423266381      -0.4158345259860343
5.13E9                   -0.7460129348136859      -0.35195154303991427
5.16E9                   -0.7732605814556686      -0.2854916687468511
5.19E9                   -0.794561559475517       -0.21697298792665187
5.22E9                   -0.8097651885979803      -0.1469284268802313
5.25E9                   -0.8187688073043738      -0.07590145563961204
5.28E9                   -0.8215184572422077      -0.00444172280689087
5.31E9                   -0.8180091757003801      0.06689934877666164
5.34E9                   -0.8082848917749743      0.13757297844990288
5.37E9                   -0.7924379182450807      0.20703742531162847
5.4E9                    -0.7706080314676818      0.2747623284406055
5.43E9                   -0.7429811372512232      0.3402329437990632
5.46E9                   -0.709787530444687       0.40295422725088265
5.49E9                   -0.6712997674863811      0.46245471294458657
5.52E9                   -0.6278301820082789      0.5182901407106164
5.55E9                   -0.5797280825805844      0.5700467932546514
5.58E9                   -0.5273766778192197      0.6173445141040816
5.61E9                   -0.4711897769994666      0.6598393885166208
5.64E9                   -0.41160831278088716     0.6972260818111549
5.67E9                   -0.34909672601410524     0.7292398400950133
5.7E9                    -0.284139241366179       0.7556581641981543
5.73E9                   -0.2172360502847389      0.7763021654989534
5.76E9                   -0.14889940998351606     0.7910376024175798
5.79E9                   -0.07964966948713528     0.7997755828266739
5.82E9                   -0.010011246569174227    0.802472909011307
5.85E9                   0.0594914028070523       0.799132044679793
5.88E9                   0.12833776804419214      0.7898006986754542
5.91E9                   0.19601516481848355      0.7745710407772514
5.94E9                   0.2620224685377183       0.7535785822144931
5.97E9                   0.32587367263863315      0.7270007611311569
6.0E9                    0.387101260200423        0.695055270849517
