% Model:              three_layers reality at 0.1mm.mph
% Version:            COMSOL 5.6.0.280
% Date:               Mar 11 2022, 11:31
% Table:              表格 1 - 全局计算 1
% freq (Hz)              real(emw.S11) (1)        imag(emw.S11) (1)
300000000                0.5578975310413433       -0.755555347367713
330000000                0.48620166592830644      -0.80178405225571
360000000                0.4108476705672196       -0.841358702484396
390000000                0.33243049373800826      -0.8739869902406039
420000000                0.251560636774645        -0.8994294550297037
450000000                0.16887511458097074      -0.9174990490436019
480000000                0.08502942056129364      -0.9280647269364896
510000000                6.917215359653284E-4     -0.9310537148690223
540000000                -0.08346299623899558     -0.9264530340033725
570000000                -0.16675881736807663     -0.914310354488578
600000000                -0.2485247891917456      -0.8947342148257477
630000000                -0.32810077705049673     -0.8678936304678375
660000000                -0.4048432409148968      -0.8340171084674849
690000000                -0.4781308856529536      -0.7933910847045966
720000000                -0.5473701373704863      -0.746357800595016
750000000                -0.6120003950187961      -0.6933126393839459
780000000                -0.6714990078846592      -0.6347009453759938
810000000                -0.7253859280254661      -0.5710143557619607
840000000                -0.7732279913064026      -0.5027866771307234
870000000                -0.8146427802270266      -0.4305893473038005
900000000                -0.8493020281373647      -0.3550265243741537
930000000                -0.8769345265687829      -0.2767298532490419
960000000                -0.8973285041906641      -0.19635296145443648
990000000                -0.9103334508202692      -0.11456574034017258
1020000000               -0.9158613664516786      -0.03204847247062318
1050000000               -0.9138874224414911      0.05051413513013236
1080000000               -0.9044500285394886      0.13243894810116247
1110000000               -0.8876503070991391      0.21305036997346877
1140000000               -0.8636509827336014      0.2916862130618212
1170000000               -0.8326747029142845      0.36770341462620826
1200000000               -0.7950018116376985      0.44048354032345166
1230000000               -0.7509676046748401      0.5094380202595996
1260000000               -0.7009591008188079      0.5740130669359543
1290000000               -0.6454113681890818      0.6336942298398078
1320000000               -0.584803449937346       0.6880105455409433
1350000000               -0.5196539363292018      0.7365382492194936
1380000000               -0.4505162336496416      0.77890401871077
1410000000               -0.3779735819883294      0.8147877286620298
1440000000               -0.30263387529416585     0.8439246986092077
1470000000               -0.22512433722245062     0.8661074249624958
1500000000               -0.14608610596781466     0.8811867928512064
1530000000               -0.06616877992130324     0.8890727694438194
1560000000               0.013975025458115731     0.889734585675745
1590000000               0.09369506177696625      0.8832004181207447
1620000000               0.1723487275677874       0.8695565872134452
1650000000               0.2493062021561869       0.8489462917615334
1680000000               0.3239553943726879       0.8215679030893205
1710000000               0.39570667172422386      0.7876728447119752
1740000000               0.46399733777632374      0.7475630859983013
1770000000               0.5282958307635329       0.7015882794974565
1800000000               0.5881056184038613       0.6501425734567803
1830000000               0.6429687688091335       0.5936611313265325
1860000000               0.6924691797170838       0.532616390848859
1890000000               0.736235451808263        0.4675140953825633
1920000000               0.7739433947588612       0.3988891298787951
1950000000               0.8053181571898371       0.3273011938578454
1980000000               0.8301359742987593       0.25333034300463836
2010000000               0.8482255291750662       0.17757243038390094
2040000000               0.8594689256001861       0.10063447832187332
2070000000               0.8638022724900186       0.0231300101311317
2100000000               0.8612158814221588       -0.054325628678295004
2130000000               0.8517540806076629       -0.13111993136191874
2.16E9                   0.8355146501766154       -0.20664784536568478
2.19E9                   0.8126478852386807       -0.2803163149446516
2.22E9                   0.7833552946575953       -0.3515487250563682
2.25E9                   0.7478879449669041       -0.41978922125412166
2.28E9                   0.706544459976816        -0.4845068821048331
2.31E9                   0.6596686875535789       -0.5451997218154426
2.34E9                   0.6076470445850433       -0.601398503511964
2.37E9                   0.5509055497571307       -0.6526703447800193
2.4E9                    0.48990654935311256      -0.6986220984421339
2.43E9                   0.4251451351877911       -0.7389034882361725
2.46E9                   0.3571452456110391       -0.7732099701048565
2.49E9                   0.28645543796523754      -0.8012852689191826
2.52E9                   0.21364433147003759      -0.8229235104192825
2.55E9                   0.13929576061430424      -0.8379708370323874
2.58E9                   0.06400375319593969      -0.8463263939485574
2.61E9                   -0.011632467846562378    -0.8479426335333389
2.64E9                   -0.08701323061597979     -0.8428250219845824
2.67E9                   -0.16154277062485606     -0.8310313796049427
2.7E9                    -0.23463325923825354     -0.8126711278856871
2.73E9                   -0.30570874635598067     -0.7879045837534845
2.76E9                   -0.37420927714069085     -0.7569422121259816
2.79E9                   -0.43959528809374704     -0.7200435901206379
2.82E9                   -0.5013521889605829      -0.6775158443671453
2.85E9                   -0.5589949249062617      -0.6297114486252025
2.88E9                   -0.6120723176274139      -0.5770254021380675
2.91E9                   -0.6601710507050712      -0.5198918831324789
2.94E9                   -0.7029192331205215      -0.45878048574648855
2.97E9                   -0.7399895183884964      -0.3941921309423124
3.0E9                    -0.771101774656728       -0.3266547189309543
3.03E9                   -0.7960253041718194      -0.25671857429692263
3.06E9                   -0.814580608716798       -0.18495172615863514
3.09E9                   -0.8266406949738739      -0.11193506434082118
3.12E9                   -0.8321319141332735      -0.03825741204269825
3.15E9                   -0.8310343313734102      0.03548944170721011
3.18E9                   -0.8233816245605466      0.10871570549615504
3.21E9                   -0.8092605158023956      0.18083849972086205
3.24E9                   -0.7888097443022117      0.25128667629251844
3.27E9                   -0.7622185938833242      0.3195054997294798
3.3E9                    -0.7297249932042507      0.3849611473256805
3.33E9                   -0.6916132110794169      0.4471449883229225
3.36E9                   -0.6482111731510938      0.505577605142532
3.39E9                   -0.5998874296885744      0.5598125228218875
3.42E9                   -0.5470478074164914      0.6094396163283528
3.45E9                   -0.49013178064390406     0.6540881695735032
3.48E9                   -0.4296085994572912      0.6934295635462784
3.51E9                   -0.3659732142355197      0.7271795755905148
3.54E9                   -0.299742037083406       0.7551002760816022
3.57E9                   -0.23144858158315415     0.7770015133241066
3.6E9                    -0.16163902209381664     0.7927419822570633
3.63E9                   -0.09086771387650981     0.802229876914905
3.66E9                   -0.019692713395406614    0.8054231313896075
3.69E9                   0.051328663266355795     0.8023292578780682
3.72E9                   0.121644209018252        0.7930047939810958
3.75E9                   0.1907110892637757       0.7775543738197013
3.78E9                   0.2579999712772155       0.7561294390682428
3.81E9                   0.3229989924913662       0.7289266066371783
3.84E9                   0.3852175425366662       0.6961857099476625
3.87E9                   0.44418983356094444      0.6581875313747971
3.9E9                    0.49947823344324116      0.6152512448368026
3.93E9                   0.5506763355644718       0.5677315905871274
3.96E9                   0.5974117390842267       0.5160158090337985
3.99E9                   0.639348516343135        0.4605203660489274
4.02E9                   0.6761893487282408       0.4016875086025817
4.05E9                   0.7076773213018545       0.3399816933960911
4.08E9                   0.7335973767310571       0.2758859320564228
4.11E9                   0.7537774397697433       0.20989809187685537
4.14E9                   0.7680892308873528       0.14252718198375156
4.17E9                   0.776448789211192        0.07428964381099883
4.2E9                    0.7788167206352252       0.005705655191452899
4.23E9                   0.7751981788284432       -0.06270454687975774
4.26E9                   0.7656425792072888       -0.130424317867307
4.29E9                   0.7502430425118348       -0.1969442190129148
4.32E9                   0.7291355664032211       -0.2617655739496125
4.35E9                   0.7024979284815462       -0.3244039480339495
4.38E9                   0.6705483286904222       -0.384392531887712
4.41E9                   0.6335437801181002       -0.4412854151965207
4.44E9                   0.5917782542821625       -0.4946607401763663
4.47E9                   0.5455805821150588       -0.5441237237253528
4.5E9                    0.4953121080751348       -0.5893095328100405
4.53E9                   0.4413640947003106       -0.6298859905827738
4.56E9                   0.38415487930473         -0.665556083767986
4.59E9                   0.32412679211947193      -0.6960602377530045
4.62E9                   0.2617428547934006       -0.7211783250434102
4.65E9                   0.19748328675937366      -0.7407313764432928
4.68E9                   0.13184185414066948      -0.7545829705583945
4.71E9                   0.06532209951255279      -0.7626402857510222
4.74E9                   -0.0015665088656806603   -0.7648548072764583
4.77E9                   -0.068312472556085       -0.7612226895763449
4.8E9                    -0.13440617271163582     -0.751784778198025
4.83E9                   -0.19934376853232988     -0.7366262966671383
4.86E9                   -0.262631062455368       -0.7158762018115153
4.89E9                   -0.32378731021727936     -0.6897062080163604
4.92E9                   -0.38234895128086654     -0.6583294789426635
4.95E9                   -0.4378732309319038      -0.6219989856468148
4.98E9                   -0.48994168074990985     -0.5810055333328406
5.01E9                   -0.5381634213747741      -0.5356754643166788
5.04E9                   -0.5821782505342191      -0.4863680512442618
5.07E9                   -0.6216594800139226      -0.4334726015753753
5.1E9                    -0.6563164884153232      -0.3774053008112555
5.13E9                   -0.685896961036092       -0.31860582801963294
5.16E9                   -0.7101887949803658      -0.25753378163823265
5.19E9                   -0.7290216554655551      -0.19466495586991753
5.22E9                   -0.7422681776068216      -0.13048750656157743
5.25E9                   -0.7498448139776379      -0.06549804118647377
5.28E9                   -0.7517123305298883      -1.9766145312186936E-4
5.31E9                   -0.7478759513886084      0.06491201748134141
5.34E9                   -0.738385148634608       0.12933284769244266
5.37E9                   -0.723333069900804       0.19257410108274411
5.4E9                    -0.7028555974837899      0.2541563588806248
5.43E9                   -0.6771300384957797      0.31361529589262277
5.46E9                   -0.6463734550661808      0.3705053140656676
5.49E9                   -0.6108406542161109      0.4244029803885779
5.52E9                   -0.5708218666774505      0.47491022893887114
5.55E9                   -0.5266401514415955      0.5216572942706144
5.58E9                   -0.4786485677036441      0.5643053526393966
5.61E9                   -0.42722715736509714     0.6025488583050178
5.64E9                   -0.37277977886241703     0.6361175727128886
5.67E9                   -0.31573082604450564     0.6647782931848936
5.7E9                    -0.2565218551161741      0.6883362916815385
5.73E9                   -0.19560813179131903     0.7066364707485168
5.76E9                   -0.1334551049327425      0.7195642335151513
5.79E9                   -0.07053481686632815     0.7270460521341601
5.82E9                   -0.007322273631995735    0.729049712273623
5.85E9                   0.05570818494258259      0.7255842156143533
5.88E9                   0.11808646469473488      0.7166993376632075
5.91E9                   0.1793501960528687       0.7024848575797221
5.94E9                   0.23904807394550734      0.6830694916772404
5.97E9                   0.29674303631425014      0.6586195677079884
6.0E9                    0.35201527348044803      0.6293374733995862
