% Model:              three_layers reality at 0.1mm.mph
% Version:            COMSOL 5.6.0.280
% Date:               Mar 8 2022, 20:35
% Table:              表格 1 - 全局计算 1
% freq (Hz)              real(emw.S11) (1)        imag(emw.S11) (1)
300000000                0.612747504440414        -0.7425564521482113
330000000                0.5458132813941934       -0.7924119580755357
360000000                0.47494658579615145      -0.8363037912848612
390000000                0.4006632118723758       -0.8739230896965555
420000000                0.32350575847132146      -0.9050046885681647
450000000                0.24403937409724624      -0.9293297986881751
480000000                0.16284736214263784      -0.9467281630658878
510000000                0.08052668344592018      -0.9570797230275659
540000000                -0.0023166200668741864   -0.9603158193170522
570000000                -0.08507205276115304     -0.9564199442504034
600000000                -0.16712931618648152     -0.9454280554659609
630000000                -0.24788295024206858     -0.9274284601167961
660000000                -0.32673693431119855     -0.9025612773789832
690000000                -0.40310921556159185     -0.8710174882195422
720000000                -0.4764361296852231      -0.8330375828932706
750000000                -0.5461766831232089      -0.7889098182073245
780000000                -0.6118166626598158      -0.738968099716251
810000000                -0.6728725422074637      -0.6835895052596925
840000000                -0.7288951549387769      -0.623191470455561
870000000                -0.779473103415578       -0.5582286573552259
900000000                -0.8242358794334049      -0.48918953193238335
930000000                -0.8628566695256515      -0.41659267700597735
960000000                -0.8950548235948003      -0.340982869610649
990000000                -0.9205979666246477      -0.2629269548090423
1020000000               -0.9393037370598283      -0.18300954767049096
1050000000               -0.9510411374603962      -0.101828599406513
1080000000               -0.9557314874466704      -0.019990861598540167
1110000000               -0.953348971207197       0.06189271433205612
1140000000               -0.943920775839305       0.14321160511439862
1170000000               -0.9275268201758782      0.22336033518564313
1200000000               -0.9042990768948638      0.3017430500519416
1230000000               -0.8744204945385591      0.3777780073614687
1260000000               -0.8381235290446203      0.4509019501866027
1290000000               -0.795688297815149       0.5205743281985129
1320000000               -0.7474403722650417      0.5862813339711835
1350000000               -0.6937482279660478      0.647539722891902
1380000000               -0.6350203737803268      0.7039003880962315
1410000000               -0.571702184321459       0.7549516631147788
1440000000               -0.5042724619903404      0.8003223280728605
1470000000               -0.4332397567124267      0.8396842977190403
1500000000               -0.35913847355242234     0.8727549721570963
1530000000               -0.28252479948001635     0.8992992342844943
1560000000               -0.20397248155704395     0.9191310808642916
1590000000               -0.12406849017215614     0.9321148771068475
1620000000               -0.043408600514695375    0.9381662278420037
1650000000               0.037407073179026896     0.9372524612265596
1680000000               0.11777855710052682      0.9293927241070602
1710000000               0.19711047726623507      0.9146576909743747
1740000000               0.2748164658469353       0.8931688914365963
1770000000               0.3503234821462332       0.8650976637953045
1800000000               0.4230760172055941       0.8306637450037844
1830000000               0.4925401518525542       0.7901335097600699
1860000000               0.5582074396218992       0.7438178739597413
1890000000               0.6195985876860881       0.6920698797600885
1920000000               0.6762669104158694       0.6352819816402973
1950000000               0.7278015320761316       0.5738830548298776
1980000000               0.773830317295823        0.5083351489053167
2010000000               0.814022509836746        0.4391300110832475
2040000000               0.8480910623436557       0.3667854051614954
2070000000               0.8757946421446796       0.2918412528104252
2100000000               0.8969393002276601       0.2148556254770163
2130000000               0.9113797929738002       0.13640061561762773
2.16E9                   0.9190205486536016       0.05705811646325909
2.19E9                   0.9198162728953012       -0.022584459404922288
2.22E9                   0.9137721900211937       -0.10193849282980383
2.25E9                   0.9009439193579368       -0.18041847198166894
2.28E9                   0.8814369882027574       -0.2574462771337375
2.31E9                   0.8554059854462427       -0.33245540691082326
2.34E9                   0.8230533621496261       -0.40489511670679956
2.37E9                   0.7846278874970264       -0.4742344412991748
2.4E9                    0.7404227701828753       -0.5399660744493421
2.43E9                   0.6907734567797569       -0.6016100792329561
2.46E9                   0.636055119352362        -0.6587174034129654
2.49E9                   0.5766798450409895       -0.710873173868066
2.52E9                   0.5130935422384256       -0.7576997414838013
2.55E9                   0.44577258164446776      -0.798859445221443
2.58E9                   0.37522019958588476      -0.8340570615952431
2.61E9                   0.3019627029686316       -0.8630419100749965
2.64E9                   0.2265455259749034       -0.8856095982729244
2.67E9                   0.14952918746770846      -0.9016034114304186
2.7E9                    0.07148518210623127      -0.9109153659416995
2.73E9                   -0.007008185015235924    -0.9134869444776155
2.76E9                   -0.08537002169245494     -0.9093095112817476
2.79E9                   -0.16302112343449357     -0.8984243862465183
2.82E9                   -0.23938827367799115     -0.8809225505189089
2.85E9                   -0.3139085269275419      -0.8569439656674405
2.88E9                   -0.38603342636178195     -0.8266765040322706
2.91E9                   -0.45523311165870883     -0.7903545002576222
2.94E9                   -0.5210002787858014      -0.7482569410499298
2.97E9                   -0.5828539597323803      -0.7007053126815783
3.0E9                    -0.6403430938714285      -0.6480611266876345
3.03E9                   -0.6930498650383896      -0.5907231448930427
3.06E9                   -0.74059278012897        -0.5291243259430262
3.09E9                   -0.7826294663699683      -0.4637285173710667
3.12E9                   -0.8188591665792911      -0.3950269186031574
3.15E9                   -0.849024913342812       -0.3235343427037225
3.18E9                   -0.8729153659794915      -0.24978530565159038
3.21E9                   -0.8903662962833732      -0.17432997424079455
3.24E9                   -0.9012617123034922      -0.09773000412885778
3.27E9                   -0.9055346121559995      -0.02055430096528363
3.3E9                    -0.9031673630081134      0.05662526214329982
3.33E9                   -0.8941917034614832      0.13323813719155828
3.36E9                   -0.8786883706517715      0.20871937037689703
3.39E9                   -0.8567863564230814      0.28251381453809915
3.42E9                   -0.8286617999605191      0.3540802523316879
3.45E9                   -0.7945365272045241      0.42289539845368096
3.48E9                   -0.7546762500468213      0.4884577506334785
3.51E9                   -0.7093884411971078      0.5502912600700027
3.54E9                   -0.6590199029286883      0.6079487941456714
3.57E9                   -0.6039540503017782      0.6610153659470477
3.6E9                    -0.5446079317128674      0.7091111071193824
3.63E9                   -0.48142901127723353     0.7518939632295318
3.66E9                   -0.41489173938199075     0.7890620929538721
3.69E9                   -0.34549393900616554     0.8203559552099127
3.72E9                   -0.27375303638276866     0.8455600709643746
3.75E9                   -0.20020216538453683     0.8645044491114864
3.78E9                   -0.12538617541163752     0.8770656684355794
3.81E9                   -0.049857572826876334    0.8831676101963609
3.84E9                   0.025827573912439308     0.8827818382759477
3.87E9                   0.1011137351046795       0.875927626220695
3.9E9                    0.1754499965747714       0.8626716329077007
3.93E9                   0.24829408214687324      0.8431272310568133
3.96E9                   0.31911629195851976      0.8174534955109888
3.99E9                   0.3874033272373467       0.7858538611083316
4.02E9                   0.45266197349640547      0.7485744628718627
4.05E9                   0.5144226151345793       0.7059021743979587
4.08E9                   0.5722425574366096       0.658162362681217
4.11E9                   0.6257091342193128       0.6057163796929441
4.14E9                   0.6744425824560797       0.5489588120675748
4.17E9                   0.7180986676229871       0.48831451057668285
4.2E9                    0.756371045437815        0.4242354209839825
4.23E9                   0.7889933466703092       0.35719723806311277
4.26E9                   0.8157409727155156       0.2876959050545552
4.29E9                   0.8364325905353962       0.2162439822655618
4.32E9                   0.8509313174554436       0.14336690966074156
4.35E9                   0.859145588500779        0.06959918961671509
4.38E9                   0.8610297016393788       -0.0045194836993790455
4.41E9                   0.8565840386733531       -0.07844812209846129
4.44E9                   0.8458549613641395       -0.15164834245663036
4.47E9                   0.8289343837902798       -0.22358824195506044
4.5E9                    0.8059590231234275       -0.2937462239175128
4.53E9                   0.7771093323473579       -0.36161474884859013
4.56E9                   0.7426081204301049       -0.4267039840580982
4.59E9                   0.7027188677022242       -0.488545325561671
4.62E9                   0.6577437470897192       -0.5466947655617446
4.65E9                   0.6080213648183772       -0.600736079640436
4.68E9                   0.553924237013047        -0.6502838092306291
4.71E9                   0.49585602124057043      -0.6949860167029897
4.74E9                   0.43424852434326733      -0.7345267926298611
4.77E9                   0.36955850912813965      -0.7686284975851436
4.8E9                    0.30226432377344176      -0.7970537230117334
4.83E9                   0.23286237830545478      -0.8196069580028823
4.86E9                   0.16186349280719714      -0.8361359507057783
4.89E9                   0.08978914274667887      -0.8465327545060024
4.92E9                   0.017167627624224125     -0.8507344507079484
4.95E9                   -0.05546981005915868     -0.8487235411770211
4.98E9                   -0.12759288704259522     -0.840528006424446
5.01E9                   -0.198676173784148       -0.826221027156446
5.04E9                   -0.26820295139753175     -0.8059203700132204
5.07E9                   -0.33566900101126945     -0.7797874412294917
5.1E9                    -0.40058629598777346     -0.7480260149411916
5.13E9                   -0.4624865677365808      -0.710880646069552
5.16E9                   -0.5209247173373976      -0.6686347806461277
5.19E9                   -0.5754820467016339      -0.6216085793675179
5.22E9                   -0.6257692852826868      -0.5701564724147403
5.25E9                   -0.671429390594127       -0.5146644653812101
5.28E9                   -0.7121401031065334      -0.45554721712184904
5.31E9                   -0.7476162376690925      -0.39324491119436034
5.34E9                   -0.7776116948996823      -0.3282199434026234
5.37E9                   -0.8019211769508348      -0.26095344953464233
5.4E9                    -0.8203815936212436      -0.19194169909813943
5.43E9                   -0.8328731467733432      -0.12169238326711228
5.46E9                   -0.8393200840231698      -0.05072082692748206
5.49E9                   -0.839691116106523       0.020453843980854394
5.52E9                   -0.8339994960070218      0.09131254792889822
5.55E9                   -0.8223027617030836      0.16134007488750607
5.58E9                   -0.8047021478967795      0.23002886380848075
5.61E9                   -0.7813416753973748      0.2968827018607902
5.64E9                   -0.7524069295138731      0.3614203179802646
5.67E9                   -0.718123540793301       0.42317884611564377
5.7E9                    -0.6787553822673289      0.4817171360125883
5.73E9                   -0.6346024977633601      0.5366188904940156
5.76E9                   -0.5859987755960913      0.5874956093309928
5.79E9                   -0.5333093832430568      0.6339893186182188
5.82E9                   -0.4769279809381913      0.675775064438833
5.85E9                   -0.4172737359355802      0.7125631501950891
5.88E9                   -0.3547881630965015      0.744101099672778
5.91E9                   -0.28993182014309343     0.7701753322169161
5.94E9                   -0.22318088644937417     0.7906125413075991
5.97E9                   -0.1550236533823588      0.8052807718079926
6.0E9                    -0.08595695247562407     0.8140901939694747
