% Model:              three_layers reality at 0.1mm.mph
% Version:            COMSOL 5.6.0.280
% Date:               Mar 8 2022, 20:38
% Table:              表格 1 - 全局计算 1
% freq (Hz)              real(emw.S11) (1)        imag(emw.S11) (1)
300000000                0.6193772663038044       -0.7480111501660182
330000000                0.5517875555806248       -0.798679925543196
360000000                0.48030467712333125      -0.843247964748175
390000000                0.40533207014643957      -0.8814696202318976
420000000                0.3274219155772038       -0.9130748499774978
450000000                0.24714869378503934      -0.9378404990430012
480000000                0.1651052040555083       -0.9555926496876016
510000000                0.0818976814207158       -0.966208250282083
540000000                -0.001858531400477581    -0.9696163390534412
570000000                -0.08554360486150224     -0.96579883220028
600000000                -0.168537889848899       -0.9547908702882053
630000000                -0.2502265968466514      -0.9366807287322987
660000000                -0.33000444716096616     -0.9116092991165282
690000000                -0.4072802606981976      -0.8797691489320562
720000000                -0.4814814435006066      -0.8414031698701303
750000000                -0.5520583399289593      -0.7968028267157488
780000000                -0.6184884146374571      -0.7463060215904401
810000000                -0.6802802311531178      -0.6902945907217246
840000000                -0.7369771951061547      -0.6291914540290209
870000000                -0.7881610317646912      -0.563457440030275
900000000                -0.8334549699073697      -0.49358781145102903
930000000                -0.8725266063304966      -0.4201085188739837
960000000                -0.9050904269476497      -0.3435722134179199
990000000                -0.930909965042212       -0.26455404898212814
1020000000               -0.949799578185133       -0.18364730931538106
1050000000               -0.9616258301088249      -0.10145889429450493
1080000000               -0.966308466392038       -0.018604702164104658
1110000000               -0.9638209763317249      0.06429505483394413
1140000000               -0.9541907371672305      0.14662056375108476
1170000000               -0.9374987402260295      0.22775711472110088
1200000000               -0.9138789019611105      0.3070997585439022
1230000000               -0.8835169668641903      0.38405787904182503
1260000000               -0.8466490119265653      0.4580596458988108
1290000000               -0.8035595665440005      0.5285563108787685
1320000000               -0.7545793638517834      0.5950263156495524
1350000000               -0.7000827435366599      0.6569791781115204
1380000000               -0.6404847281262829      0.713959128215554
1410000000               -0.5762377973878795      0.7655484662138692
1440000000               -0.5078283883031507      0.8113706179025146
1470000000               -0.43577314908096315     0.8510928655934404
1500000000               -0.36061497813495813     0.8844287352147235
1530000000               -0.2829188800805631      0.9111400235556835
1560000000               -0.20326767153246816     0.9310384526190945
1590000000               -0.12225757097263107     0.9439869408897386
1620000000               -0.04049370634020644     0.949900484905116
1650000000               0.041414424195433244     0.9487466469834035
1680000000               0.12285750496443626      0.9405456486439951
1710000000               0.20323093420730062      0.9253700717699123
1740000000               0.28193930126551997      0.9033441726080934
1770000000               0.3584007765916825       0.8746428165216458
1800000000               0.4320513833800744       0.8394900439158033
1830000000               0.502349120494719        0.7981572803667236
1860000000               0.5687779076798165       0.7509612063125761
1890000000               0.6308513261468556       0.6982613037518143
1920000000               0.6881161287039422       0.6404570996438498
1950000000               0.740155495992368        0.5779851272522218
1980000000               0.7865920170154862       0.5113156286810592
2010000000               0.8270903742932743       0.4409490231285016
2040000000               0.8613597161629407       0.3674121668405878
2070000000               0.8891557008254743       0.2912544319934261
2100000000               0.9102821991510833       0.21304363243816749
2130000000               0.9245926453268147       0.13336182562490725
2.16E9                   0.9319910271230427       0.05280101998938508
2.19E9                   0.932432509545567        -0.028041181655843395
2.22E9                   0.9259236884437748       -0.10856597256548549
2.25E9                   0.91252247280305         -0.188177735574189
2.28E9                   0.8923375970624061       -0.2662884092113549
2.31E9                   0.8655277671564718       -0.3423217962747184
2.34E9                   0.8323004462821907       -0.4157177852593805
2.37E9                   0.7929102885753025       -0.4859364558691048
2.4E9                    0.7476572307224366       -0.5524620407859947
2.43E9                   0.6968842526577117       -0.6148067171342338
2.46E9                   0.6409748196036088       -0.672514201106526
2.49E9                   0.5803500179404381       -0.7251631191257579
2.52E9                   0.5154653987439127       -0.7723701264846804
2.55E9                   0.4468075471815187       -0.8137927404451327
2.58E9                   0.3748904043634365       -0.8491318525705343
2.61E9                   0.30025138203792157      -0.8781338879224523
2.64E9                   0.22344732172160564      -0.9005925928682372
2.67E9                   0.14505035114136752      -0.9163504545293751
2.7E9                    0.06564367332346528      -0.9252997728270191
2.73E9                   -0.01418269938820096     -0.9273834047153235
2.76E9                   -0.09383626891381774     -0.9225951813629708
2.79E9                   -0.1727264274019408      -0.9109799772096786
2.82E9                   -0.25026886063669357     -0.8926334022830883
2.85E9                   -0.32588993541020916     -0.8677010979965023
2.88E9                   -0.39903102144279734     -0.8363776325221721
2.91E9                   -0.46915270082983185     -0.7989050053507083
2.94E9                   -0.5357388248966467      -0.7555707783815514
2.97E9                   -0.5983003847705183      -0.7067058538493984
3.0E9                    -0.6563791658863211      -0.6526819205631916
3.03E9                   -0.7095511594062136      -0.5939085907512783
3.06E9                   -0.7574297054229499      -0.5308302509294492
3.09E9                   -0.7996683446144537      -0.46392265173165814
3.12E9                   -0.8359633565557255      -0.39368926393534004
3.15E9                   -0.8660559658289162      -0.32065742904049765
3.18E9                   -0.8897341988792157      -0.24537433533234376
3.21E9                   -0.9068343779935234      -0.16840285111462217
3.24E9                   -0.9172422413566264      -0.09031724861218439
3.27E9                   -0.9208936815919355      -0.01169885230614522
3.3E9                    -0.9177750981922982      0.06686835339585133
3.33E9                   -0.9079233626437118      0.14480212253478833
3.36E9                   -0.8914253981942478      0.22152631751439109
3.39E9                   -0.8684173794264348      0.2964752160112386
3.42E9                   -0.8390835598522431      0.36909772192045853
3.45E9                   -0.8036547388331585      0.43886144749482353
3.48E9                   -0.7624063818627749      0.505256636016728
3.51E9                   -0.7156564110388799      0.5677998952923593
3.54E9                   -0.6637626850960636      0.6260377143530537
3.57E9                   -0.6071201906000019      0.679549737798815
3.6E9                    -0.5461579681121722      0.7279517743687776
3.63E9                   -0.48133579888053923     0.7708985188704456
3.66E9                   -0.4131406793391419      0.8080859690344262
3.69E9                   -0.3420831116309855      0.8392535218419138
3.72E9                   -0.2686932398377781      0.8641857362101544
3.75E9                   -0.19351686159586734     0.8827137521225252
3.78E9                   -0.11711134562548225     0.8947163585638154
3.81E9                   -0.04004148558728957     0.9001207053719738
3.84E9                   0.037124679217990675     0.898902656423314
3.87E9                   0.11382004588477256      0.8910867839713993
3.9E9                    0.18948260228033043      0.8767460062403553
3.93E9                   0.26355952345638994      0.8560008728668809
3.96E9                   0.3355111801983057       0.8290185053736446
3.99E9                   0.4048150300369299       0.7960112027604634
4.02E9                   0.4709693625856119       0.7572347251903782
4.05E9                   0.5334968719882646       0.7129862718845033
4.08E9                   0.5919480322363917       0.6636021718211786
4.11E9                   0.6459042535801146       0.6094553078160541
4.14E9                   0.6949808011535915       0.5509522957503689
4.17E9                   0.7388294597240397       0.4885304408369082
4.2E9                    0.7771409301981955       0.4226544926693963
4.23E9                   0.8096469445652045       0.35381322095793666
4.26E9                   0.8361220869175956       0.2825158340724679
4.29E9                   0.8563853088301578       0.20928826424358482
4.32E9                   0.8703011293211571       0.13466934408559936
4.35E9                   0.877780511576362        0.05920690102868784
4.38E9                   0.8787814114727408       -0.01654620387907851
4.41E9                   0.8733089951967621       -0.09203606618357119
4.44E9                   0.8614155251669466       -0.16671173102763548
4.47E9                   0.8431999148463089       -0.24002916348854286
4.5E9                    0.818806954139329        -0.31145517034765136
4.53E9                   0.7884262084466119       -0.38047124705297
4.56E9                   0.7522905962774389       -0.44657732299734293
4.59E9                   0.7106746527979184       -0.509295377530186
4.62E9                   0.6638924895699226       -0.5681728991393005
4.65E9                   0.6122954638733309       -0.6227861608059622
4.68E9                   0.5562695741276166       -0.6727432856467506
4.71E9                   0.4962326007481272       -0.7176870789346022
4.74E9                   0.4326310141102154       -0.7572976048733079
4.77E9                   0.36593667306090477      -0.7912944891130187
4.8E9                    0.29664333866767584      -0.8194389305109784
4.83E9                   0.22526302840562382      -0.8415354080838999
4.86E9                   0.15232223665268718      -0.8574330709218604
4.89E9                   0.07835804804283236      -0.8670268005047064
4.92E9                   0.003914170954014651     -0.8702579365189465
4.95E9                   -0.07046308026506783     -0.8671146590279148
4.98E9                   -0.14422882465504935     -0.8576320221075694
5.01E9                   -0.2168436448665137      -0.8418916366721713
5.04E9                   -0.28777757691336864     -0.8200210031849906
5.07E9                   -0.35651402765969886     -0.7921924981176142
5.1E9                    -0.42255358879155136     -0.7586220213274247
5.13E9                   -0.48541771626542635     -0.7195673149203697
5.16E9                   -0.5446522459207574      -0.6753259674017156
5.19E9                   -0.5998307174228042      -0.6262331200773139
5.22E9                   -0.6505574812479733      -0.5726588952057459
5.25E9                   -0.6964705661214219      -0.5150055671694429
5.28E9                   -0.7372442864830925      -0.45370449928629325
5.31E9                   -0.7725915718070315      -0.3892128694458648
5.34E9                   -0.8022660007294166      -0.3220102088508188
5.37E9                   -0.8260635243467755      -0.25259477940140684
5.4E9                    -0.8438238644611744      -0.18147981732593782
5.43E9                   -0.8554315749038601      -0.10918967279258458
5.46E9                   -0.8608167571298226      -0.03625587713645519
5.49E9                   -0.8599554249956048      0.036786829330260944
5.52E9                   -0.8528695175591979      0.10940447558940938
5.55E9                   -0.8396265627540672      0.18106781116832243
5.58E9                   -0.8203389985421924      0.25125619826452467
5.61E9                   -0.7951631616450959      0.31946141446434567
5.64E9                   -0.7642979568298748      0.3851913380027467
5.67E9                   -0.7279832217256         0.44797349036560974
5.7E9                    -0.6864978031036677      0.5073584136367048
5.73E9                   -0.6401573605244958      0.5629228619835853
5.76E9                   -0.589311913168081       0.6142727872498753
5.79E9                   -0.5343431464185419      0.6610460981018442
5.82E9                   -0.4756614970891594      0.7029151717378701
5.85E9                   -0.4137030400764979      0.7395890976293971
5.88E9                   -0.3489262031942012      0.7708156356235792
5.91E9                   -0.28180833954122353     0.7963828752582948
5.94E9                   -0.21284218761718485     0.8161205881177604
5.97E9                   -0.14253224801985223     0.8299012694962183
6.0E9                    -0.07139110375429035     0.8376408684812247
