% Model:              three_layers reality at 0.1mm.mph
% Version:            COMSOL 5.6.0.280
% Date:               Mar 11 2022, 10:18
% Table:              表格 1 - 全局计算 1
% freq (Hz)              real(emw.S11) (1)        imag(emw.S11) (1)
300000000                0.6185386331724498       -0.7382730271908626
330000000                0.5450396183804108       -0.7927102904949278
360000000                0.4713405034914326       -0.8377553244869862
390000000                0.3966597382891777       -0.8750723089101072
420000000                0.3191378167612799       -0.9057927844745031
450000000                0.23934626527040842      -0.9297017664871678
480000000                0.15787354953986538      -0.9466333989046247
510000000                0.07532247683858895      -0.9564722881496996
540000000                -0.007695396575251934    -0.9591550550019772
570000000                -0.09056449417863188     -0.9546710873727884
600000000                -0.1726699645756039      -0.9430628320390829
630000000                -0.25340241218184406     -0.9244256380479359
660000000                -0.33216257921043524     -0.89890716328738
690000000                -0.4083659452320415      -0.8667063556793192
720000000                -0.4814472103193252      -0.8280720212338948
750000000                -0.5508646282957904      -0.7833009934892488
780000000                -0.6161041567451296      -0.7327359204316726
810000000                -0.6766833917081343      -0.6767626878853897
840000000                -0.7321552568085676      -0.6158075002240566
870000000                -0.78211141695656        -0.5503336426007067
900000000                -0.8261853901993224      -0.48083795056424194
930000000                -0.8640553323472245      -0.4078470159637103
960000000                -0.8954464729069781      -0.33191315909058317
990000000                -0.92013318191366        -0.25361020061681716
1020000000               -0.9379406520091295      -0.1735290669025644
1050000000               -0.9487461822558783      -0.09227326420753003
1080000000               -0.9524800535625533      -0.010454259451690876
1110000000               -0.9491259897182913      0.07131319617352376
1140000000               -0.9387212006946183      0.1524157620871128
1170000000               -0.9213560090825648      0.23224618375025577
1200000000               -0.8971730636341951      0.3102079120286079
1230000000               -0.8663661476324084      0.38571962775945856
1260000000               -0.8291785930344482      0.45821963709381813
1290000000               -0.7859013145474049      0.5271701022462035
1320000000               -0.736870481402579       0.5920610740820887
1350000000               -0.682464846467118       0.6524142965124972
1380000000               -0.6231027564007401      0.707786752334671
1410000000               -0.5592388676078194      0.7577739249988015
1440000000               -0.49136059639775226     0.8020127512254762
1470000000               -0.4199843316951297      0.8401842443547589
1500000000               -0.3456514429188194      0.872015768772074
1530000000               -0.2689241143091456      0.8972829510709168
1560000000               -0.19038103970347306     0.9158112151564597
1590000000               -0.11061301179867229     0.9274769323680734
1620000000               -0.03021844069656048     0.9322081804687982
1650000000               0.050201164026391965     0.929985108792502
1680000000               0.13004571248699826      0.9208399096165707
1710000000               0.20872102165321618      0.9048563990312156
1740000000               0.28564323625572235      0.882169213367363
1770000000               0.36024315145028774      0.8529626301610055
1800000000               0.4319704057578557       0.8174690251161897
1830000000               0.5002975143948966       0.7759669791613124
1860000000               0.5647237141647127       0.7287790521417485
1890000000               0.624778593548           0.6762692416517528
1920000000               0.6800254829449806       0.6188401475635373
1950000000               0.7300645818271164       0.556929865013232
1980000000               0.7745358022574312       0.4910086296518107
2010000000               0.8131213098921013       0.42157524083800113
2040000000               0.8455477458483242       0.34915328985550287
2070000000               0.8715881155636922       0.2742872207113973
2100000000               0.8910633325702304       0.19753825280682047
2130000000               0.9038434079922759       0.11948019473625333
2.16E9                   0.9098482787344242       0.040695179599764715
2.19E9                   0.9090482699515147       -0.03823064786824504
2.22E9                   0.90146418980336         -0.11671146163160716
2.25E9                   0.8871670570190429       -0.19416607167044042
2.28E9                   0.8662774642495358       -0.27002219785752773
2.31E9                   0.8389645825067511       -0.3437206709893034
2.34E9                   0.8054448144656665       -0.41471953130626305
2.37E9                   0.765980106062041        -0.4824979974104755
2.4E9                    0.72087592794757         -0.5465602778035185
2.43E9                   0.6704789392350492       -0.6064391995894818
2.46E9                   0.6151743467659074       -0.6616996287922267
2.49E9                   0.5553829742423367       -0.7119416556990662
2.52E9                   0.491558056620622        -0.7568035172664507
2.55E9                   0.424181781227037        -0.7959642242461064
2.58E9                   0.3537616054290418       -0.8291458606639293
2.61E9                   0.2808263944199824       -0.8561155280797398
2.64E9                   0.2059224313981387       -0.8766869233206838
2.67E9                   0.12960934898153625      -0.8907215597433465
2.7E9                    0.05245601108739582      -0.8981296559988415
2.73E9                   -0.024963649344921814    -0.8988707104304577
2.76E9                   -0.10207484122332833     -0.8929537570228352
2.79E9                   -0.17830616721428819     -0.8804372784205621
2.82E9                   -0.2530938877177666      -0.8614287476560656
2.85E9                   -0.3258861506495845      -0.836083782451858
2.88E9                   -0.39614713731439366     -0.8046049129898013
2.91E9                   -0.4633610796773259      -0.7672399769062722
2.94E9                   -0.5270361122688657      -0.7242801614162955
2.97E9                   -0.5867079280499262      -0.6760577144760654
3.0E9                    -0.6419432118551557      -0.6229433469543753
3.03E9                   -0.692342827061146       -0.5653433482773796
3.06E9                   -0.7375447328872321      -0.5036964388329639
3.09E9                   -0.7772266112106583      -0.4384703839261155
3.12E9                   -0.8111081836088059      -0.37015839578022175
3.15E9                   -0.8389532015677983      -0.29927535168145586
3.18E9                   -0.8605710951713519      -0.22635385803220456
3.21E9                   -0.8758182683270084      -0.15194019132072029
3.24E9                   -0.8845990314778241      -0.07659014803913772
3.27E9                   -0.8868661657144614      -8.648363344791993E-4
3.3E9                    -0.8826211152760518      0.07467355756730454
3.33E9                   -0.8719138084800483      0.14946599477572597
3.36E9                   -0.8548421101557535      0.2229607683615873
3.39E9                   -0.8315509116661364      0.2946176143145821
3.42E9                   -0.8022308674770384      0.36391171753598783
3.45E9                   -0.7671167900868252      0.43033758206737743
3.48E9                   -0.7264857178047608      0.4934127363336311
3.51E9                   -0.680654672389634       0.5526812457103787
3.54E9                   -0.6299781259527091      0.6077170064695185
3.57E9                   -0.5748451987614889      0.6581267971520953
3.6E9                    -0.5156766113791565      0.703553065780603
3.63E9                   -0.45292141662830193     0.7436764333719768
3.66E9                   -0.3870535377963513      0.7782178972430355
3.69E9                   -0.3185681412970096      0.80694071963405
3.72E9                   -0.24797787223987094     0.829651990375158
3.75E9                   -0.17580898228855837     0.8462038546167463
3.78E9                   -0.10259737940161529     0.8564943993408134
3.81E9                   -0.028884629079085223    0.8604681948290729
3.84E9                   0.04478606307544056      0.8581164895873453
3.87E9                   0.11787385801299771      0.8494770595938747
3.9E9                    0.1898442492568151       0.8346337150737878
3.93E9                   0.2601729592126542       0.813715470531046
3.96E9                   0.32834973658694583      0.7868953864380158
3.99E9                   0.3938820267202102       0.7543890938643268
4.02E9                   0.45629848793849637      0.7164530162244293
4.05E9                   0.5151523287317982       0.6733823051773515
4.08E9                   0.5700244431458735       0.6255085100916574
4.11E9                   0.6205263248596342       0.5731970019453666
4.14E9                   0.6663027428250455       0.5168441736076573
4.17E9                   0.707034164350387        0.4568744380399148
4.2E9                    0.7424389125923405       0.39373704614771177
4.23E9                   0.7722750467433767       0.32790274581473633
4.26E9                   0.7963419538826276       0.259860304357027
4.29E9                   0.8144816425261276       0.19011291792423216
4.32E9                   0.8265797297336352       0.1191745328161902
4.35E9                   0.8325661161379433       0.04756610423623122
4.38E9                   0.8324153456893257       -0.024188181269790922
4.41E9                   0.8261466493269766       -0.09556469415724611
4.44E9                   0.8138236734815014       -0.16604413615886415
4.47E9                   0.7955538955351464       -0.23511527582408678
4.5E9                    0.7714877295506085       -0.3022786208401422
4.53E9                   0.7418173269598953       -0.3670500021998402
4.56E9                   0.7067750788827412       -0.4289640447250096
4.59E9                   0.6666318292289397       -0.48757749827447666
4.62E9                   0.6216948104654194       -0.5424724044091128
4.65E9                   0.5723053169629321       -0.5932590739681375
4.68E9                   0.5188361335212109       -0.6395788527851415
4.71E9                   0.4616887390247147       -0.6811066548454306
4.74E9                   0.4012903071030188       -0.7175532445868783
4.77E9                   0.33809052682123275      -0.7486672527133322
4.8E9                    0.27255826720105464      -0.7742369122368314
4.83E9                   0.20517810964204097      -0.7940915036284841
4.86E9                   0.13644677259727853      -0.8081024996269598
4.89E9                   0.06686945336222241      -0.8161844016733828
4.92E9                   -0.003043887462617967    -0.8182952614484947
4.95E9                   -0.07278227233108368     -0.8144368826767678
4.98E9                   -0.1418374565297631      -0.804654700468968
5.01E9                   -0.20970765306704264     -0.7890373379515367
5.04E9                   -0.2759012042014522      -0.7677158426832368
5.07E9                   -0.33994017111702235     -0.7408626082131939
5.1E9                    -0.4013638134364933      -0.708689989159883
5.13E9                   -0.45973193160932396     -0.6714486210332308
5.16E9                   -0.5146280461764522      -0.629425458931261
5.19E9                   -0.5656623900427799      -0.5829415517211652
5.22E9                   -0.6124746920641245      -0.5323495703300747
5.25E9                   -0.654736732592333       -0.47803111015156613
5.28E9                   -0.6921546537522206      -0.42039378829618246
5.31E9                   -0.7244710086699606      -0.3598681570700349
5.34E9                   -0.7514665350039222      -0.29690445585459496
5.37E9                   -0.7729616391118908      -0.23196922502206585
5.4E9                    -0.7888175786930337      -0.16554180739323943
5.43E9                   -0.7989373339941994      -0.09811076467172498
5.46E9                   -0.8032661605923149      -0.030170238104675447
5.49E9                   -0.8017918203215086      0.03778371669732767
5.52E9                   -0.7945444904508063      0.10525679039468623
5.55E9                   -0.7815963547917802      0.17176004641223336
5.58E9                   -0.7630608836801454      0.2368134845719143
5.61E9                   -0.7390918127103203      0.29994951501431716
5.64E9                   -0.7098818323825358      0.3607163178248845
5.67E9                   -0.6756610023628163      0.4186810659025252
5.7E9                    -0.6366949045541775      0.4734329911627333
5.73E9                   -0.5932825492283804      0.5245862750673308
5.76E9                   -0.5457540484067737      0.5717827449989874
5.79E9                   -0.4944680719978949      0.6146943570060902
5.82E9                   -0.4398091047737882      0.6530254452820423
5.85E9                   -0.3821845261371317      0.6865147196777008
5.88E9                   -0.3220215382153524      0.7149369956262426
5.91E9                   -0.25976396989973466     0.7381046453720148
5.94E9                   -0.19586898455521187     0.7558687640572389
5.97E9                   -0.1308037177177873      0.7681200479189668
6.0E9                    -0.06504186926004021     0.7747893841321873
