% Model:              three_layers reality at 0.1mm.mph
% Version:            COMSOL 5.6.0.280
% Date:               Mar 11 2022, 10:19
% Table:              表格 1 - 全局计算 1
% freq (Hz)              real(emw.S11) (1)        imag(emw.S11) (1)
300000000                0.6148818727090877       -0.7489899796078698
330000000                0.5469794272434552       -0.7993742355434788
360000000                0.4750721549478719       -0.8436461198090381
390000000                0.39967678559038         -0.8815009201053283
420000000                0.3213855789808868       -0.9126577258822434
450000000                0.24077278570465738      -0.9369020473797903
480000000                0.15844108555310701      -0.9540646919388852
510000000                0.07500621330439633      -0.9640284498424928
540000000                -0.008907672476789053    -0.9667292760357097
570000000                -0.0926727164463868      -0.9621570183385917
600000000                -0.17566214110365888     -0.9503556892901168
630000000                -0.2572550264471425      -0.9314232877286863
660000000                -0.3368410553234898      -0.9055111776296937
690000000                -0.4138251849218879      -0.8728230336333779
720000000                -0.4876322069374556      -0.8336133643628187
750000000                -0.5577111589143348      -0.7881856273571657
780000000                -0.6235395512294573      -0.7368899521291775
810000000                -0.6846273755797029      -0.6801204902301262
840000000                -0.740520862357414       -0.6183124142027281
870000000                -0.7908059559551394      -0.5519385901024257
900000000                -0.8351114799943116      -0.48150595079637015
930000000                -0.87311196696305        -0.4075515987303395
960000000                -0.9045301282378921      -0.3306386713682569
990000000                -0.9291389451763532      -0.2513520019788126
1020000000               -0.9467633643311282      -0.17029361139005356
1050000000               -0.9572815828531331      -0.0880780680087582
1080000000               -0.9606259143139652      -0.005327753750166853
1110000000               -0.9567832284873458      0.07733192515763111
1140000000               -0.9457949622923112      0.1592773436666037
1170000000               -0.927756702830518       0.23989144055464195
1200000000               -0.9028173469605525      0.3185684392626451
1230000000               -0.8711778458835329      0.3947184684646251
1260000000               -0.8330895459730145      0.46777204682039203
1290000000               -0.788852141369827       0.5371843942937525
1320000000               -0.7388112562361242      0.6024395376294251
1350000000               -0.6833556781178007      0.6630541772812721
1380000000               -0.6229142662996956      0.7185812864813074
1410000000               -0.5579525615754484      0.7686134152797295
1440000000               -0.4889691266118028      0.8127856747490247
1470000000               -0.41649164668307065     0.850778380591703
1500000000               -0.3410728242253958      0.8823193366685681
1530000000               -0.2632860995914684      0.9071857440090965
1560000000               -0.1837212338131421      0.9252057223807256
1590000000               -0.10297978736799465     0.936259436108916
1620000000               -0.021670531818936745    0.940279817997136
1650000000               0.05959517080314143      0.9372528891677272
1680000000               0.14020798508467322      0.9272176754686486
1710000000               0.21956518065414807      0.9102657242020085
1740000000               0.29707513796605056      0.886540228016847
1770000000               0.3721617481288615       0.8562347655703821
1800000000               0.4442686746175548       0.8195916713516349
1830000000               0.5128634465734608       0.77690004954349
1860000000               0.5774413544277405       0.7284934493241346
1890000000               0.6375291209153837       0.6747472210932377
1920000000               0.6926883222071585       0.6160755751633064
1950000000               0.7425185357204243       0.5529283664955977
1980000000               0.7866601938506801       0.4857876304850069
2010000000               0.8247971248617247       0.4151638961405222
2040000000               0.8566587641121011       0.34159230508628635
2070000000               0.8820220221576189       0.2656285644385626
2100000000               0.9007127975565808       0.18784476436500672
2130000000               0.9126071257913311       0.10882508986427307
2.16E9                   0.9176319574128193       0.029161458406811454
2.19E9                   0.9157655615333333       -0.05055088537315681
2.22E9                   0.9070375532215135       -0.1297177866473498
2.25E9                   0.8915285458742631       -0.20775057782412387
2.28E9                   0.8693694322546343       -0.28407042495035384
2.31E9                   0.8407403002333578       -0.3581125935545635
2.34E9                   0.8058689917170483       -0.42933060370104786
2.37E9                   0.7650293152172744       -0.49720024628611625
2.4E9                    0.7185389241853042       -0.5612234333714998
2.43E9                   0.666756874406691        -0.6209318564306314
2.46E9                   0.6100808742598964       -0.6758904270484243
2.49E9                   0.5489442420762218       -0.7257004737472249
2.52E9                   0.48381258653333925      -0.7700026658825708
2.55E9                   0.41518023104220775      -0.8084796316491403
2.58E9                   0.3435664129399918       -0.8408582355801846
2.61E9                   0.26951130358160164      -0.8669114856583777
2.64E9                   0.19357190565228724      -0.8864600579181308
2.67E9                   0.11631788158003005      -0.8993734502972747
2.7E9                    0.038327345284420035     -0.9055707944486096
2.73E9                   -0.03981737762355362     -0.9050213489683107
2.76E9                   -0.11753402945929317     -0.8977446732278525
2.79E9                   -0.19424473605027295     -0.8838104568434206
2.82E9                   -0.26938033068383005     -0.8633379739045554
2.85E9                   -0.342384639556716       -0.8364951432866813
2.88E9                   -0.412718676292808       -0.8034971950153619
2.91E9                   -0.4798646986984128      -0.7646049569997246
2.94E9                   -0.5433300891098801      -0.7201227836667922
2.97E9                   -0.6026510269183639      -0.6703961502057441
3.0E9                    -0.6573959265938731      -0.615808936119557
3.03E9                   -0.7071686168993025      -0.5567804220853881
3.06E9                   -0.7516112388555778      -0.4937620248151959
3.09E9                   -0.7904068417663229      -0.4272337958488983
3.12E9                   -0.8232816584091052      -0.35770071185151253
3.15E9                   -0.8500070426994766      -0.2856887856808992
3.18E9                   -0.8704010557800799      -0.21174102883796986
3.21E9                   -0.8843296891280927      -0.13641329741807676
3.24E9                   -0.8917077164054619      -0.060270054300300746
3.27E9                   -0.8924991686957733      0.016119918810891514
3.3E9                    -0.8867174309665847      0.09218782550163417
3.33E9                   -0.8744249607518575      0.16736914135136519
3.36E9                   -0.8557326330686525      0.2411078495448003
3.39E9                   -0.8307987186486584      0.3128605926308903
3.42E9                   -0.7998275055396447      0.3821007082517946
3.45E9                   -0.7630675768696208      0.4483221183212176
3.48E9                   -0.7208097603664685      0.5110430420230867
3.51E9                   -0.6733847677261893      0.5698095049693579
3.54E9                   -0.6211605442441844      0.6241986187475312
3.57E9                   -0.5645393513820215      0.6738216070391303
3.6E9                    -0.5039546067994872      0.7183265569451606
3.63E9                   -0.4398675081015597      0.7574008765542687
3.66E9                   -0.3727634679621359      0.7907734424230283
3.69E9                   -0.30314838936625166     0.8182164233642517
3.72E9                   -0.2315448104506609      0.8395467696996234
3.75E9                   -0.15848794889627166     0.8546273598175145
3.78E9                   -0.08452167616520843     0.8633677984481273
3.81E9                   -0.010194451622472657    0.8657248636682406
3.84E9                   0.06394475313109087      0.8617026018707442
3.87E9                   0.13735050989317302      0.851352072377493
3.9E9                    0.20948493935014698      0.834770745648047
3.93E9                   0.27982163688427913      0.8121015616038364
3.96E9                   0.34784948925611836      0.7835316573104594
3.99E9                   0.4130763539145134       0.7492907761138006
4.02E9                   0.4750325733598786       0.709649373513718
4.05E9                   0.5332742995684866       0.6649164378705759
4.08E9                   0.5873866060369501       0.6154370464187361
4.11E9                   0.6369863677327872       0.5615896789554896
4.14E9                   0.681724892968682        0.5037833118682316
4.17E9                   0.7212902932922205       0.44245431530249557
4.2E9                    0.7554095793815769       0.3780631757613293
4.23E9                   0.7838504719862673       0.3110910661154689
4.26E9                   0.806422917393806        0.24203628587723414
4.29E9                   0.8229802981742562       0.1714105954883239
4.32E9                   0.833420331561457        0.09973547007552021
4.35E9                   0.837685650465581        0.02753829874777308
4.38E9                   0.8357640646657117       -0.04465144402353669
4.41E9                   0.827688502180937        -0.1163060291221564
4.44E9                   0.8135366325010303       -0.18690328043484375
4.47E9                   0.7934301745561854       -0.2559303348726701
4.5E9                    0.7675338933472524       -0.32288733022285127
4.53E9                   0.7360542905019152       -0.3872909957778848
4.56E9                   0.6992379959406183       -0.4486781202803208
4.59E9                   0.657369870394864        -0.5066088712534943
4.62E9                   0.6107708313549921       -0.5606699403008275
4.65E9                   0.5597954181909025       -0.6104774896591723
4.68E9                   0.5048291148813384       -0.6556798772852832
4.71E9                   0.4462854514501066       -0.6959601396677617
4.74E9                   0.38460290689225407      -0.7310382145203138
4.77E9                   0.3202416376959054       -0.7606728880644206
4.8E9                    0.25368005666230076      -0.7846634542797813
4.83E9                   0.18541128681013533      -0.8028510757414575
4.86E9                   0.1159395153104093       -0.8151198373698565
4.89E9                   0.04577627293080653      -0.8213974857817024
4.92E9                   -0.024563335258780405    -0.821655848518426
4.95E9                   -0.09456442079677832     -0.8159109289636819
4.98E9                   -0.1637160967344473      -0.8042226749795797
5.01E9                   -0.23151522776144226     -0.7866944217566134
5.04E9                   -0.2974701168433202      -0.7634720121840662
5.07E9                   -0.36110409938331256     -0.7347426010285372
5.1E9                    -0.42195901661160296     -0.7007331522279944
5.13E9                   -0.4795985409057575      -0.661708641623076
5.16E9                   -0.5336113271599067      -0.6179699803530037
5.19E9                   -0.583613966507626       -0.5698516766672784
5.22E9                   -0.6292537209981218      -0.5177192559625672
5.25E9                   -0.6702110205771796      -0.46196645998484875
5.28E9                   -0.7062017056863579      -0.4030122469043027
5.31E9                   -0.7369790005168699      -0.34129761430258565
5.34E9                   -0.7623352029806987      -0.27728226777407927
5.37E9                   -0.7821030783350675      -0.21144115929035057
5.4E9                    -0.7961569448677337      -0.14426092137794946
5.43E9                   -0.8044134423810286      -0.07623622501334772
5.46E9                   -0.8068319771192325      -0.007866091216850805
5.49E9                   -0.8034148405777071      0.06034981322505422
5.52E9                   -0.79420700325717        0.12791486496681917
5.55E9                   -0.7792955881457333      0.1943391281585025
5.58E9                   -0.7588090321158383      0.25914292447879783
5.61E9                   -0.7329159463564336      0.3218603022944517
5.64E9                   -0.7018236893148133      0.38204238040592453
5.67E9                   -0.6657766669638197      0.4392605446627538
5.7E9                    -0.6250543756510795      0.49310947788116116
5.73E9                   -0.5799692023831076      0.5432100051075478
5.76E9                   -0.5308639972943193      0.5892117361517827
5.79E9                   -0.4781094340507814      0.6307954865515685
5.82E9                   -0.4221011767313039      0.667675457480731
5.85E9                   -0.36325687574949256     0.6996011561089269
5.88E9                   -0.30201301915780443     0.7263590411570965
5.91E9                   -0.23882166797021373     0.7477738830815551
5.94E9                   -0.17414710398744315     0.7637098334503477
5.97E9                   -0.10846241702566264     0.7740712018757445
6.0E9                    -0.042246056320312954    0.7788029412325312
