% Model:              three_layers reality at 0.1mm.mph
% Version:            COMSOL 5.6.0.280
% Date:               Mar 9 2022, 15:07
% Table:              表格 1 - 全局计算 1
% freq (Hz)              real(emw.S11) (1)        imag(emw.S11) (1)
300000000                0.5483673465111901       -0.7328142137439196
330000000                0.4794184816656351       -0.7781613913448185
360000000                0.40685477535985515      -0.817158309069035
390000000                0.3312379744340305       -0.8495099693572495
420000000                0.2531583655590497       -0.8749717491555334
450000000                0.173229226991087        -0.8933520128068455
480000000                0.09208136162248391      -0.9045142103141638
510000000                0.010357636835376561     -0.908378469476067
540000000                -0.0712924936392657      -0.9049226823987152
570000000                -0.15221848604640018     -0.8941830839892702
600000000                -0.23177420261211712     -0.8762543187813678
630000000                -0.3093233789993301      -0.8512889936449857
660000000                -0.38424502633710883     -0.8194967163412539
690000000                -0.4559387271212371      -0.781142623380166
720000000                -0.5238297811617382      -0.7365454043803186
750000000                -0.5873741545760742      -0.6860748356861379
780000000                -0.646063186418868       -0.630148839817092
810000000                -0.6994280056446872      -0.5692300938302416
840000000                -0.7470436140004303      -0.5038222142399739
870000000                -0.7885325922551543      -0.4344655513460188
900000000                -0.8235683898917137      -0.361732631336128
930000000                -0.8518781627064094      -0.28622328878630926
960000000                -0.8732451271243651      -0.20855953640308256
990000000                -0.8875104051867295      -0.12938022271289876
1020000000               -0.8945743399176695      -0.04933553105272076
1050000000               -0.8943972668536806      0.030918624107135053
1080000000               -0.8869997339350546      0.11072624685985051
1110000000               -0.8724621684923153      0.18943689718105225
1140000000               -0.8509239966894496      0.2664112591274989
1170000000               -0.8225822272226367      0.341026583211369
1200000000               -0.787689517447971       0.4126819486875151
1230000000               -0.7465517459053752      0.48080329435822605
1260000000               -0.6995251208204308      0.5448481696356507
1290000000               -0.6470128589969061      0.6043101619518209
1320000000               -0.5894614738577993      0.6587229611448961
1350000000               -0.5273567149514335      0.7076640265531138
1380000000               -0.4612192042489908      0.750757827824702
1410000000               -0.3915998165203119      0.7876786362193213
1440000000               -0.3190748526245571      0.8181528486694181
1470000000               -0.24424105495231033     0.8419608326929922
1500000000               -0.16771051456870367     0.8589382855697402
1530000000               -0.09010551850459586     0.8689771067043927
1560000000               -0.012053384418172365    0.8720257869974928
1590000000               0.0658186715873109       0.8680893236615778
1620000000               0.14288859119863365      0.857228673258034
1650000000               0.21854441346832482      0.8395597593650357
1680000000               0.2921890600861719       0.8152520546725001
1710000000               0.3632449320165993       0.7845267600284764
1740000000               0.43115828617197494      0.7476546053316628
1770000000               0.4954033641869616       0.7049532990220542
1800000000               0.5554862488470026       0.6567846541980756
1830000000               0.6109484263632908       0.6035514207355548
1860000000               0.6613700365501565       0.5456938530105976
1890000000               0.7063727952530865       0.48368604351771405
1920000000               0.7456225764249909       0.4180320526821518
1950000000               0.7788316438596518       0.349261864887654
1980000000               0.80576052477447         0.27792720070340776
2010000000               0.826219519781791        0.20459721471288905
2040000000               0.8400698457184987       0.12985410790003468
2070000000               0.8472244096265975       0.0542886831719355
2100000000               0.8476482139893151       -0.021504128220494485
2130000000               0.8413583948607055       -0.09692974194629904
2.16E9                   0.8284238961156132       -0.17139837089009913
2.19E9                   0.808964784582053        -0.24432942415914402
2.22E9                   0.7831512122364679       -0.31515582980445017
2.25E9                   0.7512020330429504       -0.3833282566061648
2.28E9                   0.7133830832596559       -0.4483192116723981
2.31E9                   0.6700051346582274       -0.5096269923288828
2.34E9                   0.6214215302467953       -0.5667794720674049
2.37E9                   0.5680255105862572       -0.6193377022569577
2.4E9                    0.5102472353195617       -0.6668993119113673
2.43E9                   0.4485504992206522       -0.7091016850879772
2.46E9                   0.38342913536177436      -0.7456248874065894
2.49E9                   0.315403095303892        -0.7761942953660956
2.52E9                   0.2450142064592786       -0.8005828552179581
2.55E9                   0.17282164222970026      -0.8186128714259046
2.58E9                   0.099397205603875        -0.8301572224665317
2.61E9                   0.025320601361131703     -0.8351399554912771
2.64E9                   -0.04882510208939764     -0.8335363299024332
2.67E9                   -0.12245769892077014     -0.8253725087348158
2.7E9                    -0.19499981166438582     -0.8107251333601493
2.73E9                   -0.265882804929457       -0.7897209013890868
2.76E9                   -0.33455087094192726     -0.7625360677970714
2.79E9                   -0.4004653756531365      -0.7293956516355083
2.82E9                   -0.4631093800088696      -0.690572138020789
2.85E9                   -0.5219921531911917      -0.6463835749897566
2.88E9                   -0.576653497825297       -0.5971910814216135
2.91E9                   -0.6266677647753807      -0.5433958474272037
2.94E9                   -0.6716474951714821      -0.48543572098968363
2.97E9                   -0.7112466648995158      -0.42378145988019256
3.0E9                    -0.7451635224092507      -0.35893270825619145
3.03E9                   -0.7731430133449662      -0.29141374360499767
3.06E9                   -0.7949787838429799      -0.2217690329098658
3.09E9                   -0.8105147525214975      -0.15055863551434762
3.12E9                   -0.819646241160183       -0.07835349145381001
3.15E9                   -0.8223206560053081      -0.005730636033648994
3.18E9                   -0.818537714947511       0.06673161660302189
3.21E9                   -0.8083492201031904      0.1384584770261252
3.24E9                   -0.7918583800318904      0.2088834269391763
3.27E9                   -0.7692186906723029      0.27745286464363106
3.3E9                    -0.7406323887855019      0.34363060709439086
3.33E9                   -0.706348496099501       0.4069022079696725
3.36E9                   -0.6666604764858141      0.46677905348113974
3.39E9                   -0.6219035321458535      0.5228022006392513
3.42E9                   -0.572451568185698       0.5745459257095269
3.45E9                   -0.5187138577907112      0.6216209542321947
3.48E9                   -0.4611314428844624      0.6636773475400674
3.51E9                   -0.4001733070460374      0.7004070249558174
3.54E9                   -0.33633235932772493     0.7315459047860112
3.57E9                   -0.2701212684827116      0.7568756518797518
3.6E9                    -0.20206818786129804     0.7762250238432361
3.63E9                   -0.13271241103246326     0.7894708126661886
3.66E9                   -0.06259999733297957     0.7965383829708451
3.69E9                   0.007720594848136031     0.7974018122023449
3.72E9                   0.07770283170299469      0.792083641714053
3.75E9                   0.14680635155631735      0.7806542503850219
3.78E9                   0.2145011061937508       0.7632308642766383
3.81E9                   0.28027136775048744      0.7399762168442685
3.84E9                   0.34361957454134606      0.7110968748330571
3.87E9                   0.4040699894159227       0.6768412458197726
3.9E9                    0.46117214404276546      0.6374972849709939
3.93E9                   0.5145040421268464       0.5933899215040497
3.96E9                   0.5636750948674463       0.5448782297585811
3.99E9                   0.6083287640865049       0.492352375317126
4.02E9                   0.648144893231494        0.43623037228959005
4.05E9                   0.6828417141080323       0.37695469207073
4.08E9                   0.7121775269492787       0.31498876483254956
4.11E9                   0.7359520612013551       0.2508134115316628
4.14E9                   0.7540075316740819       0.18492323620909068
4.17E9                   0.7662294066505301       0.1178229986353706
4.2E9                    0.7725469012800567       0.05002397847795528
4.23E9                   0.772933202546708        -0.017959661745426445
4.26E9                   0.7674054254540906       -0.08561450657883524
4.29E9                   0.7560242968436622       -0.15243149682163115
4.32E9                   0.7388935648626114       -0.21790949943508095
4.35E9                   0.7161591366326086       -0.28155881745249206
4.38E9                   0.6880079509297673       -0.3429046210693675
4.41E9                   0.6546665939093828       -0.4014902851068234
4.44E9                   0.6163996634413543       -0.4568806213569718
4.47E9                   0.5735078832916214       -0.5086649941249924
4.5E9                    0.5263259648392306       -0.5564603034821681
4.53E9                   0.47522021370938783      -0.5999138143840629
4.56E9                   0.4205858824210127       -0.6387058034206814
4.59E9                   0.3628442770085052       -0.6725519908458879
4.62E9                   0.3024396341070958       -0.7012057246871796
4.65E9                   0.23983579328549692      -0.7244598864163752
4.68E9                   0.17551269593580143      -0.7421484933271126
4.71E9                   0.1099627460712494       -0.7541479800839341
4.74E9                   0.043687068985484606     -0.7603781498677731
4.77E9                   -0.022808298356516057    -0.7608027921962407
4.8E9                    -0.08901625565482069     -0.7554299688327781
4.83E9                   -0.15443250130809966     -0.7443119703386532
4.86E9                   -0.21855938596611602     -0.7275449443437513
4.89E9                   -0.28090973582625484     -0.7052681940765262
4.92E9                   -0.3410106212434557      -0.6776631438986183
4.95E9                   -0.39840704216432155     -0.6449519690206892
4.98E9                   -0.4526654977297917      -0.6073958895007062
5.01E9                   -0.5033774043319797      -0.5652931335840166
5.04E9                   -0.5501623250179144      -0.5189765816302528
5.07E9                   -0.5926709738072304      -0.46881110830691325
5.1E9                    -0.6305879606147825      -0.415190647238773
5.13E9                   -0.6636342465389948      -0.35853500821412265
5.16E9                   -0.6915692851492437      -0.29928648181192324
5.19E9                   -0.7141928326769729      -0.23790626895914577
5.22E9                   -0.7313464176482127      -0.17487077251317482
5.25E9                   -0.7429144664661675      -0.11066778447835096
5.28E9                   -0.7488250839965755      -0.04579259732255491
5.31E9                   -0.7490504867522946      0.019255936191419003
5.34E9                   -0.7436070825267938      0.08397937056274779
5.37E9                   -0.7325551874288616      0.14788363451082548
5.4E9                    -0.7159983719964803      0.2104829623927422
5.43E9                   -0.6940824334527864      0.27130374852026956
5.46E9                   -0.6669940000054331      0.3298882790877309
5.49E9                   -0.6349587832287096      0.3857982963657203
5.52E9                   -0.5982395039889574      0.43861835379315733
5.55E9                   -0.5571335250464805      0.48795892696611143
5.58E9                   -0.5119702286661635      0.5334592541535061
5.61E9                   -0.4631081799012202      0.5747898897078079
5.64E9                   -0.4109321147676124      0.6116549639476565
5.67E9                   -0.35584978674433665     0.6437941517689242
5.7E9                    -0.2982886955982778      0.6709843566400511
5.73E9                   -0.2386927124596955      0.6930411143349285
5.76E9                   -0.1775186094068346      0.7098197117962278
5.79E9                   -0.11523250470819911     0.721216005270824
5.82E9                   -0.0523062469111661      0.7271669150762804
5.85E9                   0.010786223670602625     0.7276505780088938
5.88E9                   0.07357248668149392      0.7226861522557627
5.91E9                   0.13558517702566775      0.7123332879414994
5.94E9                   0.19636540394865243      0.6966912910939359
5.97E9                   0.2554660291553814       0.6758980149387089
6.0E9                    0.31245479268824305      0.6501285099828218
