% Model:              three_layers reality at 0.1mm.mph
% Version:            COMSOL 5.6.0.280
% Date:               Mar 1 2022, 09:33
% Table:              表格 1 - 全局计算 1
% freq (Hz)              real(emw.S11) (1)        imag(emw.S11) (1)
300000000                0.5429756037982882       -0.732883094842519
330000000                0.47373352614248854      -0.777849651558915
360000000                0.4009079190323135       -0.8164165937186976
390000000                0.32506624285695307      -0.8482913191268721
420000000                0.24680450364589676      -0.873232268454289
450000000                0.16674158212086337      -0.8910515561963467
480000000                0.08551365353698195      -0.9016170709566872
510000000                0.003768623024784823     -0.9048540546926516
540000000                -0.07783945138142734     -0.9007461630484492
570000000                -0.1586559473864826      -0.8893360050233886
600000000                -0.2380312602295022      -0.870725159253519
630000000                -0.31532634869196674     -0.8450736652655962
660000000                -0.3899182078656635      -0.812598990471874
690000000                -0.4612052270394782      -0.7735744772216329
720000000                -0.5286123875284404      -0.7283272784178917
750000000                -0.5915962536255839      -0.6772357950059367
780000000                -0.6496497090697115      -0.6207266339564854
810000000                -0.70230639229687        -0.5592711105107888
840000000                -0.7491447849549013      -0.49338132401693396
870000000                -0.7897919106528811      -0.4236058419559349
900000000                -0.8239266041635498      -0.35052503186002243
930000000                -0.8512823154775545      -0.2747460852900948
960000000                -0.8716494175386725      -0.19689778280038742
990000000                -0.8848769923485629      -0.11762505157866177
1020000000               -0.8908740755658707      -0.03758337120373359
1050000000               -0.8896103463459412      0.04256691550550952
1080000000               -0.8811162555921875      0.12216632805516814
1110000000               -0.8654825925604325      0.20056195129525092
1140000000               -0.8428594965017778      0.2771130575711444
1170000000               -0.8134549266203801      0.3511965907789558
1200000000               -0.7775326099846492      0.42221245755729825
1230000000               -0.7354094930526359      0.48958857347896806
1260000000               -0.6874527279235689      0.5527856160750467
1290000000               -0.6340762293390365      0.6113014407468844
1320000000               -0.5757368428197877      0.664675120297635
1350000000               -0.5129301677352686      0.7124905743474257
1380000000               -0.44618608200388477     0.7543797602424015
1410000000               -0.376064017049795       0.7900254029422271
1440000000               -0.3031480330154569      0.8191632470711898
1470000000               -0.22804174455811366     0.8415838202029173
1500000000               -0.1513631474810845      0.8571337019720837
1530000000               -0.07373939558094787     0.8657162989967766
1560000000               0.004198424610648566     0.8672921307172858
1590000000               0.08182047508530754      0.8618786357894088
1620000000               0.15850326036079565      0.8495495130378832
1650000000               0.23363459356127392      0.8304336146096164
1680000000               0.30661839690809106      0.8047134123090803
1710000000               0.37687930238022904      0.772623060803823
1740000000               0.44386702152685764      0.734446083699162
1770000000               0.5070604568422102       0.6905127102984985
1800000000               0.565971530588722        0.6411968922152534
1830000000               0.6201487101947212       0.5869130299831238
1860000000               0.66918021259754         0.5281124404725387
1890000000               0.7126968730491392       0.46527959622346443
1920000000               0.7503746669211768       0.3989281677556063
1950000000               0.7819368759010829       0.32959689979017776
1980000000               0.8071558928549053       0.25784535166578026
2010000000               0.8258546623583115       0.18424953144973238
2040000000               0.8379077566899693       0.10939745171300991
2070000000               0.843242089556862        0.03388463281913097
2100000000               0.8418372718438303       -0.04169042384332545
2130000000               0.8337256142580977       -0.11673077508925991
2.16E9                   0.8189917792497632       -0.1906455766483501
2.19E9                   0.7977720764156037       -0.26285462086969796
2.22E9                   0.7702533786519464       -0.3327928699977089
2.25E9                   0.7366716103085772       -0.39991497275177984
2.28E9                   0.6973097320581374       -0.46369971503188856
2.31E9                   0.6524951471149081       -0.5236542826953753
2.34E9                   0.6025965218593048       -0.5793181271443815
2.37E9                   0.5480201733332478       -0.6302661950328297
2.4E9                    0.48920636073750323      -0.6761114093637156
2.43E9                   0.4266258583422353       -0.7165065750587449
2.46E9                   0.3607769546131451       -0.7511461392539626
2.49E9                   0.292182638671833        -0.7797682102639564
2.52E9                   0.22138751756933672      -0.8021569112426792
2.55E9                   0.1489541264051036       -0.8181447932116067
2.58E9                   0.07545859597098784      -0.8276149198771341
2.61E9                   0.0014858706464693228    -0.830502360811315
2.64E9                   -0.07237527896648253     -0.8267950172333974
2.67E9                   -0.14553726724562763     -0.8165338260435355
2.7E9                    -0.21741863062681716     -0.7998124232753616
2.73E9                   -0.28744884817871075     -0.7767763349843573
2.76E9                   -0.3550730264647617      -0.7476217383957451
2.79E9                   -0.4197564328086947      -0.7125938167217754
2.82E9                   -0.48098885642430766     -0.6719847210139069
2.85E9                   -0.5382887706453314      -0.6261311499100093
2.88E9                   -0.5912072651686808      -0.5754115598777098
2.91E9                   -0.6393317146683059      -0.520243022607689
2.94E9                   -0.6822891497296877      -0.4610777508933591
2.97E9                   -0.7197492969128707      -0.39839931935012746
3.0E9                    -0.7514272570862297      -0.33271861079141535
3.03E9                   -0.7770857941261053      -0.26456952338839224
3.06E9                   -0.7965372099533792      -0.19450447731584863
3.09E9                   -0.8096447862457835      -0.12308976265924294
3.12E9                   -0.8163237780342165      -0.05090077263222053
3.15E9                   -0.8165419495300462      0.021482832245074582
3.18E9                   -0.8103196478524652      0.09348198262283047
3.21E9                   -0.7977294155753756      0.16452303516462616
3.24E9                   -0.7788951480564643      0.2340425382536486
3.27E9                   -0.7539908061215557      0.30149188458105447
3.3E9                    -0.7232386987856574      0.36634180848518616
3.33E9                   -0.686907354298074       0.42808668798851396
3.36E9                   -0.645309000919668       0.4862486136604952
3.39E9                   -0.5987966818009802      0.5403811882587067
3.42E9                   -0.5477610312733844      0.5900730228822207
3.45E9                   -0.4926267431090559      0.6349508970687776
3.48E9                   -0.4338487652228336      0.6746825519879333
3.51E9                   -0.3719082597761464      0.7089790884797392
3.54E9                   -0.307308372765341       0.7375969453595783
3.57E9                   -0.24056986224652183     0.7603394389720562
3.6E9                    -0.17222663846468436     0.7770578525347664
3.63E9                   -0.10282127142185171     0.7876520730334597
3.66E9                   -0.03290052075319636     0.792070783451194
3.69E9                   0.0369890604558778       0.7903112274971059
3.72E9                   0.10630540182554925      0.7824185719538354
3.75E9                   0.17451503233208837      0.7684848978940187
3.78E9                   0.24109700528510897      0.748647856895649
3.81E9                   0.305546607832963        0.7230890322921345
3.84E9                   0.36737884159770773      0.6920320477207567
3.87E9                   0.42613167313818323      0.6557404638976044
3.9E9                    0.48136906517537686      0.6145154974488372
3.93E9                   0.5326838076091515       0.5686935825660594
3.96E9                   0.5797001678035997       0.5186437797331185
3.99E9                   0.6220763707309793       0.4647650210258665
4.02E9                   0.6595069035573019       0.40748317392821254
4.05E9                   0.6917246215465582       0.34724790807062167
4.08E9                   0.7185026184401118       0.2845293612447573
4.11E9                   0.7396558192447285       0.21981461802685287
4.14E9                   0.7550422571902274       0.15360403137906076
4.17E9                   0.7645640077217245       0.08640742999227574
4.2E9                    0.7681677669370622       0.018740259594353142
4.23E9                   0.7658450759794722       -0.04888029520457111
4.26E9                   0.7576322033654116       -0.11593916878597964
4.29E9                   0.7436097025141539       -0.18192722189397584
4.32E9                   0.7239016617691203       -0.2463449771754791
4.35E9                   0.6986746604524957       -0.30870626760401426
4.38E9                   0.6681364393830581       -0.36854178456781617
4.41E9                   0.6325342900572299       -0.4254025107805756
4.44E9                   0.5921531649613755       -0.4788630193695121
4.47E9                   0.5473135126853809       -0.5285246161199728
4.5E9                    0.49836884502394574      -0.5740182986419263
4.53E9                   0.44570304841924724      -0.6150075045284471
4.56E9                   0.3897274575618223       -0.6511906212272548
4.59E9                   0.33087771441001057      -0.6823032327282609
4.62E9                   0.2696104399837159       -0.7081200825925258
4.65E9                   0.2063997488067747       -0.728456738379395
4.68E9                   0.14173363569256736      -0.7431709485187409
4.71E9                   0.07611026189442943      -0.7521636874524509
4.74E9                   0.010034163291691201     -0.7553798869194565
4.77E9                   -0.055987600741810264    -0.7528088498010198
4.8E9                    -0.12144934026713959     -0.7444843386104636
4.83E9                   -0.1858506489901128      -0.7304843259279372
4.86E9                   -0.24870031194422257     -0.7109303916875143
4.89E9                   -0.30952016983929065     -0.685986754506029
4.92E9                   -0.3678488951975064      -0.65585893160095
4.95E9                   -0.4232456309915762      -0.6207920330208688
4.98E9                   -0.475293443161338       -0.5810687085860821
5.01E9                   -0.5236025441373111      -0.5370067776576221
5.04E9                   -0.5678132545288929      -0.4889565804414775
5.07E9                   -0.6075986827830251      -0.4372980932209446
5.1E9                    -0.6426671153946648      -0.38243784757588895
5.13E9                   -0.6727641197921668      -0.3248056855193855
5.16E9                   -0.6976743651382677      -0.26485137072305187
5.19E9                   -0.7172231610509961      -0.2030410652615954
5.22E9                   -0.7312777024778274      -0.13985367694600923
5.25E9                   -0.7397479960261042      -0.0757770883766321
5.28E9                   -0.7425874366624554      -0.01130429397929626
5.31E9                   -0.7397930090409655      0.05307051059001044
5.34E9                   -0.7314051042910795      0.11685583015947693
5.37E9                   -0.7175069642905936      0.17956670627627203
5.4E9                    -0.6982237823502437      0.24072844316509479
5.43E9                   -0.6737214957246224      0.29988019654979486
5.46E9                   -0.6442053007588967      0.3565784147643217
5.49E9                   -0.6099179099343683      0.410400130422803
5.52E9                   -0.5711375573870114      0.460946100879716
5.55E9                   -0.5281757503627992      0.507843788577141
5.58E9                   -0.4813747610448622      0.5507501613859499
5.61E9                   -0.431104856504219       0.5893542817390814
5.64E9                   -0.3777612738839613      0.6233796439938595
5.67E9                   -0.3217609620558703      0.6525862147775148
5.7E9                    -0.263539128039265       0.6767721333620891
5.73E9                   -0.20354564268082367     0.6957750403513074
5.76E9                   -0.14224136953901817     0.7094730227362644
5.79E9                   -0.08009447869373539     0.7177851865045545
5.82E9                   -0.017576792278744157    0.7206718861427538
5.85E9                   0.04483981300810243      0.7181346459522087
5.88E9                   0.10668693946522954      0.7102157999250922
5.91E9                   0.1675031382725541       0.6969978611588404
5.94E9                   0.2268373111273311       0.6786026176604363
5.97E9                   0.28425202722477466      0.6551899453345413
6.0E9                    0.3393267273510562       0.6269563318532605
