% Model:              three_layers reality at 0.1mm.mph
% Version:            COMSOL 5.6.0.280
% Date:               Mar 1 2022, 09:40
% Table:              表格 1 - 全局计算 1
% freq (Hz)              real(emw.S11) (1)        imag(emw.S11) (1)
300000000                0.5392383151288778       -0.728258159008514
330000000                0.4704752894041825       -0.7728515114926058
360000000                0.3981610813513314       -0.8110973650035351
390000000                0.3228584757358995       -0.8427044909334491
420000000                0.24515873521399068      -0.867432793320668
450000000                0.16567585162829152      -0.885095770847181
480000000                0.08504093905413478      -0.8955624906394141
510000000                0.003896673663565409     -0.8987590715621221
540000000                -0.07710825918311777     -0.8946696714932078
570000000                -0.15732471604483358     -0.8833369717379078
600000000                -0.2361086316829309      -0.8648621526376744
630000000                -0.3128265133880529      -0.8394043564434418
660000000                -0.3868608586536816      -0.8071796367488638
690000000                -0.45761545591047015     -0.76845939764533
720000000                -0.5245205242014922      -0.7235683304559499
750000000                -0.5870376462449353      -0.6728818606894289
780000000                -0.6446644483460096      -0.6168231232174074
810000000                -0.696938981032338       -0.5558594891105086
840000000                -0.7434437558965321      -0.490498672877631
870000000                -0.7838093963281415      -0.42128445420015614
900000000                -0.8177178630944266      -0.34879205326185747
930000000                -0.8449052196997493      -0.27362320338512797
960000000                -0.865163907113796       -0.19640096890220346
990000000                -0.8783445028200257      -0.11776435962434964
1020000000               -0.8843569448827928      -0.038362796224527644
1050000000               -0.883171207958938       0.041149517035118544
1080000000               -0.8748174246917441      0.12011925480716196
1110000000               -0.859385452467747       0.19789961006599863
1140000000               -0.8370238922213556      0.273855853060182
1170000000               -0.8079385724196286      0.34737075345734936
1200000000               -0.772390517655642       0.41784981152131
1230000000               -0.7306934271534674      0.48472624715297474
1260000000               -0.6832106938711537      0.5474656992156296
1290000000               -0.6303519997920278      0.6055705917509124
1320000000               -0.5725695271342564      0.6585841285345373
1350000000               -0.5103538287073421      0.7060938825663985
1380000000               -0.44422940347974765     0.7477349524919079
1410000000               -0.3747500252534183      0.7831926637571948
1440000000               -0.30249387375642195     0.8122047978509536
1470000000               -0.22805851784368247     0.8345633387676419
1500000000               -0.15205580029527682     0.8501157313438403
1530000000               -0.07510667297941148     0.8587656513476554
1560000000               0.002163970474578747     0.8604732922731441
1590000000               0.07913241917061367      0.8552551783253075
1620000000               0.1551811837081825       0.8431835172669407
1650000000               0.22970390902136942      0.8243851105161796
1680000000               0.3021101241694947       0.7990398411025934
1710000000               0.37182979511055003      0.7673787628108555
1740000000               0.4383176497556937       0.7296818161326912
1770000000               0.5010572480110954       0.6862751984320833
1800000000               0.5595647729036014       0.6375284170721081
1830000000               0.6133925219999501       0.5838510553134295
1860000000               0.6621320817046819       0.5256892813450125
1890000000               0.7054171700143389       0.46352213115817487
1920000000               0.7429261362730429       0.39785759602401827
1950000000               0.7743841093904579       0.3292285450523425
1980000000               0.7995647887431879       0.258188512825773
2010000000               0.8182918747461525       0.18530738115719778
2040000000               0.8304401387202465       0.11116698270080128
2070000000               0.8359361341937227       0.03635665181450647
2100000000               0.8347585536090236       -0.03853125511811547
2130000000               0.8269382348836501       -0.11290585256062827
2.16E9                   0.8125578196499209       -0.18618222076617585
2.19E9                   0.7917510567407959       -0.2577858979826921
2.22E9                   0.7647017278172051       -0.32715736719030386
2.25E9                   0.731642146723631        -0.39375652347578927
2.28E9                   0.6928511594763048       -0.4570670704648865
2.31E9                   0.648651573988678        -0.516600722954238
2.34E9                   0.599407018951732        -0.571901009080307
2.37E9                   0.5455183891354665       -0.6225464416973048
2.4E9                    0.4874202117041495       -0.6681529587975931
2.43E9                   0.4255772983154506       -0.708375815088456
2.46E9                   0.3604818104936179       -0.7429113519818786
2.49E9                   0.2926504892474382       -0.7714990345821001
2.52E9                   0.22262159671573623      -0.7939238144507521
2.55E9                   0.15095124617103084      -0.8100185351306698
2.58E9                   0.07820909799642789      -0.8196659971133334
2.61E9                   0.00497361950071209      -0.8228004285313137
2.64E9                   -0.06817284870008518     -0.8194082940824718
2.67E9                   -0.14064904319303206     -0.8095284919768435
2.7E9                    -0.21187965161232347     -0.7932520207719828
2.73E9                   -0.28130007047548883     -0.7707211831598211
2.76E9                   -0.34836102954708004     -0.7421283681529255
2.79E9                   -0.4125330676922926      -0.7077144338971673
2.82E9                   -0.4733108401242947      -0.6677667036131949
2.85E9                   -0.5302172307008517      -0.6226165848707966
2.88E9                   -0.582807238455615       -0.5726368243566303
2.91E9                   -0.6306716052083142      -0.5182384142416671
2.94E9                   -0.6734401504010394      -0.4598671712021569
2.97E9                   -0.7107847805700285      -0.39800001379096916
3.0E9                    -0.7424221428181068      -0.33314096854928443
3.03E9                   -0.7681158947593574      -0.265816939369036
3.06E9                   -0.7876785671895863      -0.1965732781396753
3.09E9                   -0.8009730000078896      -0.12596919777318244
3.12E9                   -0.8079133367041553      -0.05457307093830871
3.15E9                   -0.808465567792419       0.017042340597884904
3.18E9                   -0.802647618761953       0.0883046804062834
3.21E9                   -0.7905289832960847      0.1586467699863734
3.24E9                   -0.7722299074241762      0.2275113148144559
3.27E9                   -0.7479201348189444      0.2943555003568374
3.3E9                    -0.7178172274864982      0.3586554365764688
3.33E9                   -0.6821844796393557      0.4199104113352589
3.36E9                   -0.6413284456787829      0.47764691515350893
3.39E9                   -0.5955961061564892      0.531422401630364
3.42E9                   -0.5453716985182719      0.580828749560112
3.45E9                   -0.4910732428018075      0.6254953943049144
3.48E9                   -0.4331487962767125      0.6650920979172756
3.51E9                   -0.3720724755709599      0.6993313299771992
3.54E9                   -0.3083402898871004      0.7279702348769622
3.57E9                   -0.24246583386784445     0.7508121668526484
3.6E9                    -0.17497589265758118     0.7677077816077102
3.63E9                   -0.1064060138677359      0.7785556824570021
3.66E9                   -0.037296100305764315    0.7833026288306066
3.69E9                   0.03181392589142575      0.7819433241004989
3.72E9                   0.10038834264540011      0.7745198074445138
3.75E9                   0.1678996922984748       0.7611204803875293
3.78E9                   0.23383265957969535      0.7418788033428876
3.81E9                   0.2976877400812061       0.716971701198774
3.84E9                   0.35898468625874447      0.686617719046084
3.87E9                   0.4172657298609586       0.6510749676139066
3.9E9                    0.47209859139508004      0.6106388908649868
3.93E9                   0.5230792948836719       0.5656398752909659
3.96E9                   0.5698348062448446       0.5164407043203179
3.99E9                   0.6120255044748988       0.4634338471622642
4.02E9                   0.6493474790944842       0.4070385643729048
4.05E9                   0.6815346298944185       0.34769781547443485
4.08E9                   0.7083605320558576       0.2858749659266519
4.11E9                   0.7296400248938163       0.2220503076978294
4.14E9                   0.745230486773917        0.15671742426895618
4.17E9                   0.7550327699321046       0.090379442860817
4.2E9                    0.7589917833651048       0.023545221692636176
4.23E9                   0.7570967257654293       -0.04327448179457669
4.26E9                   0.7493809806401309       -0.10957082279918591
4.29E9                   0.7359216907172282       -0.1748406315649195
4.32E9                   0.7168390285877276       -0.2385901054459114
4.35E9                   0.692295176767885        -0.3003384156409913
4.38E9                   0.6624930253055791       -0.35962121544014103
4.41E9                   0.627674590990134        -0.41599403514896605
4.44E9                   0.5881191606372937       -0.4690355450530661
4.47E9                   0.5441411622112595       -0.5183506635427378
4.5E9                    0.4960877711165866       -0.5635734843972271
4.53E9                   0.44433626405398474      -0.6043699957202652
4.56E9                   0.3892911382846833       -0.6404405636993316
4.59E9                   0.3313810193198965       -0.6715221568851919
4.62E9                   0.27105538411836466      -0.6973902910017835
4.65E9                   0.20878112912225966      -0.7178606798249203
4.68E9                   0.1450390122407301       -0.7327905834600243
4.71E9                   0.0803199951893074       -0.7420798499535515
4.74E9                   0.01512150827315697      -0.7456716480725206
4.77E9                   -0.05005634407994695     -0.7435528875059774
4.8E9                    -0.11471461981814901     -0.7357543184962433
4.83E9                   -0.17835939732249406     -0.7223502982300628
4.86E9                   -0.2405056274834636      -0.7034582091491358
4.89E9                   -0.3006809432756907      -0.6792375167471615
4.92E9                   -0.3584293826370164      -0.6498884618004188
4.95E9                   -0.4133149762306843      -0.6156503930172996
4.98E9                   -0.46492515260111233     -0.5767997584782373
5.01E9                   -0.5128739189798339      -0.5336477856202121
5.04E9                   -0.5568047859773451      -0.4865378877013953
5.07E9                   -0.5963934167852215      -0.43584283804627244
5.1E9                    -0.6313499938118996      -0.3819617508959411
5.13E9                   -0.6614213048877032      -0.3253168995131534
5.16E9                   -0.6863925537825599      -0.2663503907580603
5.19E9                   -0.706088894477874       -0.2055207049480269
5.22E9                   -0.7203766768817087      -0.14329910596261972
5.25E9                   -0.7291643791767317      -0.08016593279688833
5.28E9                   -0.7324031960069424      -0.01660679883163178
5.31E9                   -0.7300872573182193      0.04689125720444327
5.34E9                   -0.7222534691349876      0.10984361298702361
5.37E9                   -0.7089809883044643      0.1717718417255257
5.4E9                    -0.6903903595475729      0.2322073851461251
5.43E9                   -0.6666423491547739      0.2906950943887528
5.46E9                   -0.6379365048660817      0.34679662861182486
5.49E9                   -0.6045094600520241      0.4000937094242265
5.52E9                   -0.5666329879647847      0.45019122887652785
5.55E9                   -0.5246118031717972      0.49672020148654084
5.58E9                   -0.4787811045921195      0.5393405399494423
5.61E9                   -0.42950385819635023     0.5777436230748392
5.64E9                   -0.3771678268169707      0.6116546155577692
5.67E9                   -0.3221823685650067      0.6408344948575015
5.7E9                    -0.26497504209154227     0.665081743029962
5.73E9                   -0.20598807260770144     0.6842336727312497
5.76E9                   -0.14567474155696375     0.6981673761175421
5.79E9                   -0.08449576023585231     0.7068003079989293
5.82E9                   -0.02291567278444937     0.7100905320810991
5.85E9                   0.03860068713549403      0.7080366641831647
5.88E9                   0.09959167931326114      0.7006775380118114
5.91E9                   0.15960227962907805      0.6880916035565269
5.94E9                   0.2181874372859335       0.6703960545196721
5.97E9                   0.27491534985759963      0.6477456755885158
6.0E9                    0.32937062778718273      0.6203314035011048
