% Model:              three_layers reality at 0.1mm.mph
% Version:            COMSOL 5.6.0.280
% Date:               Mar 11 2022, 10:57
% Table:              表格 1 - 全局计算 1
% freq (Hz)              real(emw.S11) (1)        imag(emw.S11) (1)
300000000                0.56616054895637         -0.7645859160126769
330000000                0.49324647850523284      -0.8120459894261249
360000000                0.4166070414142315       -0.852636168405565
390000000                0.3367729270420505       -0.8860934732494781
420000000                0.25439189871288337      -0.9121687932430579
450000000                0.170125596511037        -0.9306708357146573
480000000                0.08465493740238053      -0.9414660074690722
510000000                -0.0013272874959332271   -0.9444811075848402
540000000                -0.08712219973022624     -0.9397048461132438
570000000                -0.17203074620281314     -0.9271886985440281
600000000                -0.255359676040735       -0.9070471151549754
630000000                -0.3364275225732601      -0.8794570996729769
660000000                -0.4145705328900305      -0.8446571701021899
690000000                -0.48914848693288726     -0.8029457154919553
720000000                -0.5595503475941257      -0.7546787653939208
750000000                -0.62519968541848        -0.7002671918035616
780000000                -0.6855598201643447      -0.6401733696256884
810000000                -0.7401386253716176      -0.5749073254412765
840000000                -0.7884929432039087      -0.5050224110877276
870000000                -0.8302325609788346      -0.43111054343963917
900000000                -0.8650237046557397      -0.3537970572075497
930000000                -0.8925920094219539      -0.2737352233361637
960000000                -0.9127249340539763      -0.19160048836298627
990000000                -0.9252735909352885      -0.10808449666676193
1020000000               -0.9301539719327665      -0.02388895663853436
1050000000               -0.9273475566306056      0.06028058226331232
1080000000               -0.9169012975305777      0.14372097568184034
1110000000               -0.8989269846767544      0.22573768800348565
1140000000               -0.8735999994772436      0.3056508867307284
1170000000               -0.8411574753763831      0.3828013649578958
1200000000               -0.8018958899437897      0.45655623060458717
1230000000               -0.7561681196334855      0.5263143056794216
1260000000               -0.7043799947210417      0.5915111827428743
1290000000               -0.6469863967664808      0.651623891908736
1320000000               -0.5844869460105876      0.7061751364073506
1350000000               -0.517421329646746       0.7547370615283188
1380000000               -0.44636432402445564     0.7969345286811871
1410000000               -0.3719205668448886      0.8324478718169989
1440000000               -0.2947191355693032      0.8610151211654968
1470000000               -0.21540798814747442     0.8824336853990696
1500000000               -0.13464832270474983     0.8965614892797584
1530000000               -0.05310890974945331     0.9033175704917465
1560000000               0.028539550206252786     0.9026821442403388
1590000000               0.10962999398275192      0.8946961496163571
1620000000               0.18950444184090376      0.8794602960805744
1650000000               0.26751927847816787      0.8571336322954988
1680000000               0.3430503300301775       0.8279316629385449
1710000000               0.41549770098904343      0.7921240417719173
1740000000               0.48429033960109324      0.7500318714688237
1770000000               0.5488903034705178       0.7020246424007693
1800000000               0.6087967018745257       0.6485168434093977
1830000000               0.6635492936795089       0.5899642789149899
1860000000               0.7127317245519151       0.5268601262326095
1890000000               0.7559743892984635       0.45973076778242145
1920000000               0.7929569089738276       0.389131431848865
1950000000               0.8234102144654646       0.3156416760216363
1980000000               0.8471182315363515       0.23986074559356366
2010000000               0.8639191637791446       0.16240283999884983
2040000000               0.8737063727023504       0.08389231817538517
2070000000               0.8764288555730619       0.004958874278488765
2100000000               0.8720913237590004       -0.07376728674697512
2130000000               0.8607538857678837       -0.15166024390424615
2.16E9                   0.8425313408977484       -0.22810309713712168
2.19E9                   0.8175920910052764       -0.30249261835259533
2.22E9                   0.7861566793859578       -0.3742437902067261
2.25E9                   0.7484959673770931       -0.4427942064975307
2.28E9                   0.7049289604043172       -0.5076083104440704
2.31E9                   0.6558202959726966       -0.5681814485290023
2.34E9                   0.6015774061181909       -0.6240437196088551
2.37E9                   0.5426473644564137       -0.6747636018466006
2.4E9                    0.47951342412494213      -0.7199513400550502
2.43E9                   0.41269124531605483      -0.7592620740012834
2.46E9                   0.34272480307860625      -0.792398677618804
2.49E9                   0.2701819615797422       -0.8191142580186178
2.52E9                   0.19564971341922865      -0.8392142295317019
2.55E9                   0.1197291244051634       -0.8525578451852479
2.58E9                   0.04303010490999988      -0.8590590636073178
2.61E9                   -0.03383378034587512     -0.8586866947974112
2.64E9                   -0.1102502174909013      -0.8514639131051661
2.67E9                   -0.18561261333210038     -0.8374673859671118
2.7E9                    -0.25932419271902524     -0.8168263148183093
2.73E9                   -0.3308019818938072      -0.7897215450454698
2.76E9                   -0.3994809600072802      -0.7563846561190455
2.79E9                   -0.46481849752493654     -0.7170967709481345
2.82E9                   -0.526298986937645       -0.6721868290011417
2.85E9                   -0.5834384492793454      -0.6220292007181567
2.88E9                   -0.6357889029731668      -0.5670406632686034
2.91E9                   -0.6829423511120929      -0.5076768386060406
2.94E9                   -0.7245343180264432      -0.44442820976402564
2.97E9                   -0.7602469124886848      -0.37781581311024215
3.0E9                    -0.7898114146605354      -0.30838667966504185
3.03E9                   -0.8130103880057851      -0.23670908008493496
3.06E9                   -0.82967931499689        -0.16336761898700075
3.09E9                   -0.8397077533585051      -0.08895822109329893
3.12E9                   -0.8430400092660785      -0.014083052018295395
3.15E9                   -0.839675325631286       0.06065458165362092
3.18E9                   -0.8296675872447841      0.13465530763486475
3.21E9                   -0.813124548871501       0.20732869187663872
3.24E9                   -0.7902065973921635      0.27809812564971176
3.27E9                   -0.7611250639528566      0.34640555095913905
3.3E9                    -0.7261401068453432      0.41171598182473224
3.33E9                   -0.6855581900741147      0.47352178174213394
3.36E9                   -0.6397291864251131      0.5313466606970948
3.39E9                   -0.5890431372010217      0.5847493587475417
3.42E9                   -0.5339267036983547      0.6333269869464146
3.45E9                   -0.47483934779531894     0.6767180006084915
3.48E9                   -0.4122692812451142      0.7146047838465581
3.51E9                   -0.3467292245372946      0.746715829031883
3.54E9                   -0.278752017299543       0.7728274992107843
3.57E9                   -0.20888612277963603     0.7927653661498013
3.6E9                    -0.13769106871354708     0.8064051214738971
3.63E9                   -0.06573286623848205     0.8136730629790878
3.66E9                   0.006420553109532179     0.8145461627498016
3.69E9                   0.07820384435779211      0.809051727735135
3.72E9                   0.14905866535348553      0.7972666668670724
3.75E9                   0.21843797033148926      0.7793163810683901
3.78E9                   0.28581015249180697      0.7553732938952189
3.81E9                   0.35066300942931666      0.7256550408858312
3.84E9                   0.41250750660648894      0.6904223357793103
3.87E9                   0.4708813144688797       0.649976532092048
3.9E9                    0.5253520941210787       0.6046568999273165
3.93E9                   0.5755205056657168       0.554837641001723
3.96E9                   0.621022913618781        0.5009246696511885
3.99E9                   0.6615337662397999       0.4433521936403298
4.02E9                   0.6967676309024221       0.38257913495530155
4.05E9                   0.726480876757298        0.3190854348550844
4.08E9                   0.7504730067212599       0.2533682882735467
4.11E9                   0.7685876522101005       0.18593834734614814
4.14E9                   0.780713251240811        0.11731592460398842
4.17E9                   0.7867834323216123       0.04802721416845223
4.2E9                    0.7867771215512133       -0.021399460523124053
4.23E9                   0.7807183816403637       -0.0904373684865219
4.26E9                   0.7686759833768928       -0.1585650562545854
4.29E9                   0.7507627063564251       -0.2252699842297235
4.32E9                   0.7271343676199375       -0.29005209581241703
4.35E9                   0.6979885821170012       -0.35242729877340895
4.38E9                   0.6635632636059974       -0.41193084052180357
4.41E9                   0.6241348756441895       -0.4681205635822199
4.44E9                   0.5800164391918632       -0.5205800311485612
4.47E9                   0.5315552980906008       -0.568921512179679
4.5E9                    0.4791306397483377       -0.6127888106150794
4.53E9                   0.4231507683608833       -0.6518599157669869
4.56E9                   0.36405013251227064      -0.6858494438816073
4.59E9                   0.30228611727531424      -0.7145108363230463
4.62E9                   0.23833562080551582      -0.7376382794285024
4.65E9                   0.17269144471232123      -0.755068314848752
4.68E9                   0.10585853463751338      -0.7666811161346652
4.71E9                   0.03835011121332741      -0.7724014162725787
4.74E9                   -0.029316267980664536    -0.7721990799090432
4.77E9                   -0.09662267873087504     -0.7660893218547558
4.8E9                    -0.16305480096504343     -0.754132577831786
4.83E9                   -0.2281058640984334      -0.7364340344816562
4.86E9                   -0.29128054472770515     -0.7131428234943344
4.89E9                   -0.35209879452168646     -0.6844508815765518
4.92E9                   -0.4100995737747195      -0.6505914758137865
4.95E9                   -0.4648444612801151      -0.6118373945077344
4.98E9                   -0.5159211071065813      -0.5684988068571898
5.01E9                   -0.5629464915597139      -0.5209208005757368
5.04E9                   -0.6055699530795172      -0.46948061315099743
5.07E9                   -0.6434759487599766      -0.4145845796309384
5.1E9                    -0.6763865145232715      -0.35666482650347486
5.13E9                   -0.7040633970749822      -0.29617574722379647
5.16E9                   -0.7263098366877072      -0.2335902995997386
5.19E9                   -0.7429719885186701      -0.16939616697851365
5.22E9                   -0.7539399785429359      -0.10409182374622739
5.25E9                   -0.7591485965706334      -0.038182540643847906
5.28E9                   -0.7585776310015762      0.027823641242655822
5.31E9                   -0.7522518475562392      0.09341994365217149
5.34E9                   -0.7402406095592697      0.15810486819322836
5.37E9                   -0.7226571337539591      0.22138616916915482
5.4E9                    -0.6996573765353045      0.28278474685828453
5.43E9                   -0.6714385515478042      0.3418384187550637
5.46E9                   -0.6382372894013479      0.3981055229394342
5.49E9                   -0.6003274611840305      0.45116830857823254
5.52E9                   -0.5580176972914103      0.500636073696033
5.55E9                   -0.5116486406270573      0.5461480182850947
5.58E9                   -0.46158997792271994     0.5873757906909376
5.61E9                   -0.40823729414021975     0.6240257163357809
5.64E9                   -0.35200879202311786     0.6558407088210095
5.67E9                   -0.2933419111067645      0.6826018725114058
5.7E9                    -0.23268986902348293     0.7041298094801413
5.73E9                   -0.17051813664738838     0.7202856396236907
5.76E9                   -0.10730085235078626     0.730971731954434
5.79E9                   -0.04351718495101764     0.7361321318193483
5.82E9                   0.02035233122338305      0.7357526617330695
5.85E9                   0.08382944868711704      0.7298606783087976
5.88E9                   0.1464417949113793       0.7185244837463967
5.91E9                   0.20772634571484688      0.7018524104977072
5.94E9                   0.26723274563423266      0.6799916129841945
5.97E9                   0.32452645406849306      0.6531266054899829
6.0E9                    0.37919171098543214      0.6214775811221781
