% Model:              three_layers reality at 0.1mm.mph
% Version:            COMSOL 5.6.0.280
% Date:               Mar 7 2022, 09:06
% Table:              表格 1 - 全局计算 1
% freq (Hz)              real(emw.S11) (1)        imag(emw.S11) (1)
300000000                0.5408910932579843       -0.7317129345793616
330000000                0.4717221463027061       -0.7764833397176353
360000000                0.3989887997179718       -0.814861221082062
390000000                0.3232574782130028       -0.8465551261748114
420000000                0.24512325438818952      -0.871324677661455
450000000                0.165204104656109        -0.8889831984545409
480000000                0.08413527936860668      -0.8993997995246276
510000000                0.002563704145830315     -0.9025009434982749
540000000                -0.07885762009120843     -0.8982714878869136
570000000                -0.15947522047124157     -0.8867552070142213
600000000                -0.2386407425433138      -0.8680547905867059
630000000                -0.31571650001165336     -0.8423313175407667
660000000                -0.3900809472283975      -0.8098032062643084
690000000                -0.46113403372592554     -0.7707446455484714
720000000                -0.5283023956469833      -0.7254835151114082
750000000                -0.5910443377852893      -0.6743988092065738
780000000                -0.6488545593255327      -0.6179175817770395
810000000                -0.7012685761030988      -0.556511437551771
840000000                -0.7478667947074562      -0.49069259818477606
870000000                -0.788278195290314       -0.42100957845183146
900000000                -0.8221835838105831      -0.3480425120303677
930000000                -0.849318378051072       -0.2723981715586247
960000000                -0.8694748968140366      -0.1947047315682764
990000000                -0.8825041270233953      -0.11560632629416762
1020000000               -0.8883169492245448      -0.03575745775747657
1050000000               -0.8868848084539345      0.044182688866165304
1080000000               -0.8782398239486411      0.12355596422903684
1110000000               -0.8624743378639942      0.2017109491089064
1140000000               -0.8397399099379819      0.278008565914134
1170000000               -0.8102457716118376      0.351827550231802
1200000000               -0.7742567594702225      0.42256972775054624
1230000000               -0.7320907538025185      0.4896650447668616
1260000000               -0.6841156535719279      0.5525763041694668
1290000000               -0.6307459240509486      0.6108035630552537
1320000000               -0.5724387574102707      0.663888153267327
1350000000               -0.5096898903202094      0.7114162910161609
1380000000               -0.44302912518585763     0.7530222476193482
1410000000               -0.3730156037538739      0.7883910589675728
1440000000               -0.30023288293904626     0.8172607572318807
1470000000               -0.2252838633011617      0.8394241139982779
1500000000               -0.14878562030187367     0.8547298896707585
1530000000               -0.07136418751966432     0.8630835893475819
1560000000               0.006350660301783862     0.8644477303582803
1590000000               0.08373057875510775      0.8588416313576351
1620000000               0.16015373643802422      0.8463407370318962
1650000000               0.23500976830313222      0.827075496220985
1680000000               0.30770456226031623      0.8012298145083421
1710000000               0.3776648448368244       0.769039105053638
1740000000               0.44434253500776716      0.7307879637556104
1770000000               0.5072188389289572       0.6868074965232157
1800000000               0.5658080613372632       0.6374723279442064
1830000000               0.6196611130380376       0.5831973214965164
1860000000               0.6683686969860215       0.5244340420688057
1890000000               0.7115641585533695       0.4616669919253864
1920000000               0.7489259886547818       0.3954096511833768
1950000000               0.7801799712256199       0.32620035371498
1980000000               0.8051009694923877       0.25459802866687825
2010000000               0.8235143480955703       0.1811778371216093
2040000000               0.8352970309785622       0.10652673173914194
2070000000               0.8403781973871638       0.031238965151713535
2100000000               0.8387396202988342       -0.044088430522116
2130000000               0.8304156521318569       -0.11886017576215169
2.16E9                   0.8154928599378675       -0.19248727626683812
2.19E9                   0.7941093039545504       -0.2643915519096436
2.22E9                   0.7664534362860458       -0.3340101601646083
2.25E9                   0.7327625703456548       -0.4008001012561513
2.28E9                   0.6933208456018889       -0.4642426542065896
2.31E9                   0.6484566131051012       -0.5238476198020353
2.34E9                   0.5985392376275865       -0.5791571594291133
2.37E9                   0.5439754734206732       -0.6297489915082967
2.4E9                    0.4852057549271022       -0.6752388370206686
2.43E9                   0.42270077973378695      -0.7152822946209876
2.46E9                   0.3569585230041685       -0.7495765811426551
2.49E9                   0.2885014358117605       -0.7778625412290305
2.52E9                   0.21787336554270562      -0.7999269956909639
2.55E9                   0.14563586143865556      -0.815605145733207
2.58E9                   0.07236383514794227      -0.8247826416723769
2.61E9                   -0.0013592258155689764   -0.8273970533540302
2.64E9                   -0.07494624445537479     -0.823438669459401
2.67E9                   -0.14781155882159178     -0.8129506742881116
2.7E9                    -0.2193758474613966      -0.7960287850883376
2.73E9                   -0.2890709346125208      -0.7728204188698548
2.76E9                   -0.3563444568163696      -0.7435234318221957
2.79E9                   -0.4206643756542553      -0.7083844547954237
2.82E9                   -0.48152331644389507     -0.6676968382127216
2.85E9                   -0.5384427064509818      -0.6217982172741238
2.88E9                   -0.5909766816870233      -0.57106771014227
2.91E9                   -0.6387157289045837      -0.5159227658306333
2.94E9                   -0.6812900289018954      -0.4568156832997985
2.97E9                   -0.7183724683244169      -0.39422982810094914
3.0E9                    -0.7496812892266247      -0.32867557761575195
3.03E9                   -0.7749823489012582      -0.2606860299710422
3.06E9                   -0.7940909662070686      -0.19081251542978947
3.09E9                   -0.8068733350956458      -0.11961995195483735
3.12E9                   -0.8132474908417934      -0.047682088992687256
3.15E9                   -0.8131838196708783      0.024423315000058985
3.18E9                   -0.806705107744265       0.09611933503227377
3.21E9                   -0.7938861307229721      0.16683469599867498
3.24E9                   -0.7748527901072502      0.23600851768329575
3.27E9                   -0.7497808071498411      0.3030949447002632
3.3E9                    -0.71889398920156        0.36756761942932864
3.33E9                   -0.6824620868878075      0.42892395824690316
3.36E9                   -0.6407982636556536      0.48668919334620686
3.39E9                   -0.5942562021086155      0.5404201444329458
3.42E9                   -0.5432268744857479      0.589708686274057
3.45E9                   -0.488135007938617       0.6341848796897374
3.48E9                   -0.42943527907037593     0.6735197354812364
3.51E9                   -0.36760827681582714     0.7074275832117586
3.54E9                   -0.3031562777604646      0.7356680206051529
3.57E9                   -0.23659888310234864     0.7580474248509951
3.6E9                    -0.16846857053059044     0.7744200147437514
3.63E9                   -0.09930621640737627     0.7846884618620728
3.66E9                   -0.02965664301671822     0.7888040589540459
3.69E9                   0.039935757837572444     0.7867664631356148
3.72E9                   0.10893127915499151      0.7786230393302557
3.75E9                   0.17679899193559123      0.7644678354787446
3.78E9                   0.2430206456007774       0.7444402258071827
3.81E9                   0.3070943523587669       0.7187232622691662
3.84E9                   0.36853804267506285      0.6875417763776839
3.87E9                   0.42689269114364115      0.6511602721271097
3.9E9                    0.4817253241513793       0.6098806434459912
3.93E9                   0.5326318286700954       0.5640397363955295
3.96E9                   0.5792395817333483       0.5140067597381281
3.99E9                   0.6212099109651273       0.46018053283483545
4.02E9                   0.6582403803389525       0.40298655244428955
4.05E9                   0.6900668775305014       0.34287386278814225
4.08E9                   0.7164654656386056       0.2803117253784158
4.11E9                   0.7372539569466205       0.21578610234269358
4.14E9                   0.7522931704967022       0.14979598402237657
4.17E9                   0.7614878465644278       0.08284960394653436
4.2E9                    0.7647872057721194       0.015460589659193315
4.23E9                   0.7621851547506225       -0.051855904016088195
4.26E9                   0.7537201506776786       -0.11858703962774542
4.29E9                   0.7394747422082912       -0.18422608967227902
4.32E9                   0.7195748041961896       -0.24827615596259714
4.35E9                   0.6941884798074256       -0.31025380073306114
4.38E9                   0.6635248384154782       -0.3696925763654866
4.41E9                   0.6278322534710945       -0.42614643896672516
4.44E9                   0.587396502843016        -0.4791930271338558
4.47E9                   0.5425385953774667       -0.5284367828888703
4.5E9                    0.493612331031841        -0.573511888527844
4.53E9                   0.4410016070809089       -0.6140849915603892
4.56E9                   0.3851174884873867       -0.6498576905100072
4.59E9                   0.32639506578495897      -0.6805687569612344
4.62E9                   0.26529012809045227      -0.7059960735373324
4.65E9                   0.20227568109789865      -0.725958273233118
4.68E9                   0.1378383398345692       -0.7403160714017943
4.71E9                   0.0724746230621534       -0.7489732865200438
4.74E9                   0.0066871719113621       -0.7518775478016404
4.77E9                   -0.059019088714895675    -0.7490206861989439
4.8E9                    -0.12414082856287685     -0.740438800974401
4.83E9                   -0.18818020966846982     -0.7262119892129164
4.86E9                   -0.250648775394219       -0.7064637233388651
4.89E9                   -0.31107129397452643     -0.6813598640692399
4.92E9                   -0.3689895116180577      -0.6511073037202855
4.95E9                   -0.4239657660471755      -0.6159522460034887
4.98E9                   -0.47558641204345453     -0.5761781411625415
5.01E9                   -0.5234650165482486      -0.5321033069488447
5.04E9                   -0.5672452909986188      -0.4840782744003453
5.07E9                   -0.6066037412892955      -0.4324829008956087
5.1E9                    -0.6412520284955033      -0.3777232904561569
5.13E9                   -0.6709390429468937      -0.3202285529532424
5.16E9                   -0.6954526971711854      -0.26044742205382015
5.19E9                   -0.7146214378085082      -0.19884474100671748
5.22E9                   -0.7283154647013735      -0.13589782116624796
5.25E9                   -0.7364476324251809      -0.0720926843748627
5.28E9                   -0.738974003286363       -0.007920215614785387
5.31E9                   -0.7358940263559752      0.05612772957390443
5.34E9                   -0.7272503338471648      0.11956220643062797
5.37E9                   -0.7131281673529797      0.181900994721733
5.4E9                    -0.6936544632410633      0.24267230062832057
5.43E9                   -0.6689966327318813      0.30141832048503087
5.46E9                   -0.6393610673648612      0.35769865633372344
5.49E9                   -0.6049913888308435      0.4110935819470701
5.52E9                   -0.5661664494288156      0.4612071577304863
5.55E9                   -0.5231980803764663      0.5076701855752299
5.58E9                   -0.47642858224790763     0.5501429837229698
5.61E9                   -0.4262279553580375      0.5883179502674624
5.64E9                   -0.37299087735812164     0.6219218746994283
5.67E9                   -0.317133449540987       0.6507179523237993
5.7E9                    -0.2590897504906766      0.6745074588184382
5.73E9                   -0.19930825172185182     0.6931310537111943
5.76E9                   -0.1382481593107656      0.7064697013703208
5.79E9                   -0.07637574294327615     0.7144452212971398
5.82E9                   -0.014160698696596264    0.7170204974481525
5.85E9                   0.04792742975669384      0.7141993816410918
5.88E9                   0.10942276507145472      0.7060263176723931
5.91E9                   0.16986654578137267      0.6925856968603656
5.94E9                   0.22881050696263827      0.6740009416440123
5.97E9                   0.28582017555810957      0.6504333079354006
6.0E9                    0.3404780520078603       0.6220803999699084
