% Model:              three_layers reality at 0.1mm.mph
% Version:            COMSOL 5.6.0.280
% Date:               Mar 7 2022, 09:04
% Table:              表格 1 - 全局计算 1
% freq (Hz)              real(emw.S11) (1)        imag(emw.S11) (1)
300000000                0.5600056321176304       -0.7551705346115766
330000000                0.4884591750921839       -0.8017284878669737
360000000                0.41320993230474135      -0.8416458181992381
390000000                0.33484361578479477      -0.8746275727242212
420000000                0.2539749333085661       -0.900428572219746
450000000                0.17124227419418042      -0.918857008237297
480000000                0.08730224394858155      -0.9297772563965417
510000000                0.0028240691612044346    -0.9331119892312048
540000000                -0.08151609918618555     -0.9288436383067554
570000000                -0.16504095020657028     -0.9170152355560547
600000000                -0.2470778077380766      -0.8977306523067501
630000000                -0.3269644115959263      -0.8711542484856152
660000000                -0.4040546401118742      -0.8375099427670172
690000000                -0.47772412513624474     -0.7970797147661353
720000000                -0.5473757094359829      -0.7502015526528328
750000000                -0.6124446947075177      -0.6972668636245146
780000000                -0.6724038292905266      -0.6387173685271668
810000000                -0.7267679847444595      -0.5750415074064092
840000000                -0.7750984726612693      -0.5067703877058115
870000000                -0.8170069553943335      -0.4344733123679085
900000000                -0.8521589080975964      -0.35875293009676695
930000000                -0.8802765937165531      -0.28024005493600995
960000000                -0.9011415174946689      -0.19958820690132217
990000000                -0.914596333542606       -0.11746792878669361
1020000000               -0.9205461819929237      -0.0345609378993876
1050000000               -0.9189594422652791      0.04844582686700403
1080000000               -0.9098678947375233      0.13086620030236415
1110000000               -0.8933662904749682      0.2120207660021332
1140000000               -0.8696113357646852      0.2912427492980421
1170000000               -0.8388201052936246      0.3678837672718256
1200000000               -0.8012679047166682      0.4413193773053203
1230000000               -0.7572856095020589      0.5109543694316714
1260000000               -0.707256513156489       0.5762277506652858
1290000000               -0.6516127228992147      0.636617375036657
1320000000               -0.5908311456169972      0.6916441776320803
1350000000               -0.5254291104967755      0.740875976950552
1380000000               -0.4559596779371038      0.7839308155119848
1410000000               -0.38300668621591155     0.8204798150922357
1440000000               -0.3071795889014042      0.8502495289363946
1470000000               -0.22910813634907728     0.8730237795920511
1500000000               -0.1494369543635223      0.8886449769598338
1530000000               -0.06882007220076751     0.8970149168210604
1560000000               0.012084549657335408     0.8980950655419936
1590000000               0.09262044351382492      0.8919063415229754
1620000000               0.17213796479714         0.8785284084825788
1650000000               0.24999948579310677      0.8580984995480062
1680000000               0.32558441364923835      0.830809794566365
1710000000               0.39829399661223414      0.796909375932676
1740000000               0.46755588629002887      0.756695790552702
1770000000               0.5328284272998268       0.7105162474346202
1800000000               0.5936046492438187       0.6587634817620861
1830000000               0.6494159395150156       0.601872317307032
1860000000               0.6998353788151495       0.540315959591118
1890000000               0.7444807245810061       0.47460205252370263
1920000000               0.7830170306665771       0.40526853112655614
1950000000               0.8151588945997343       0.33287930285257056
1980000000               0.8406723268543822       0.25801978916276036
2010000000               0.8593762393602646       0.18129235840650915
2040000000               0.8711435535886015       0.10331167919756097
2070000000               0.8759019311999339       0.024700021655175642
2100000000               0.8736341328141184       -0.05391747037996212
2130000000               0.864378011331516        -0.13191751779499777
2.16E9                   0.8482261442578451       -0.2086834450793405
2.19E9                   0.8253251011380244       -0.2836099174064793
2.22E9                   0.7958743239787538       -0.3561076791499675
2.25E9                   0.7601245687111089       -0.42560828875106904
2.28E9                   0.7183758221910885       -0.49156880773085665
2.31E9                   0.670974600159882        -0.5534763224935826
2.34E9                   0.6183105953334934       -0.6108520742987488
2.37E9                   0.5608128149602253       -0.6632549212623381
2.4E9                    0.49894556359081066      -0.7102839713389378
2.43E9                   0.4332047052865713       -0.7515805320352551
2.46E9                   0.36411441747139456      -0.7868298310874432
2.49E9                   0.2922242265781012       -0.8157629809305234
2.52E9                   0.2181058387110486       -0.838159328688385
2.55E9                   0.14234936477154234      -0.8538489362582873
2.58E9                   0.06555885538627138      -0.862714776214715
2.61E9                   -0.011652675317036554    -0.864694336890721
2.64E9                   -0.08866847951650031     -0.8597805286038902
2.67E9                   -0.16487335543385964     -0.848021922996842
2.7E9                    -0.23965886068910003     -0.8295224065259283
2.73E9                   -0.31242840529645916     -0.8044403215856063
2.76E9                   -0.38260219917518246     -0.7729871442288299
2.79E9                   -0.44962203548840657     -0.7354257266576533
2.82E9                   -0.5129558875966945      -0.6920681211675208
2.85E9                   -0.5721022915935138      -0.6432729986375647
2.88E9                   -0.6265944818844318      -0.5894426758813092
2.91E9                   -0.6760042444445546      -0.531019770106754
2.94E9                   -0.7199454519481302      -0.46848350348540085
2.97E9                   -0.7580772457244503      -0.4023456860768083
3.0E9                    -0.7901068319009187      -0.3331464101117686
3.03E9                   -0.8157918622405309      -0.26144949319884364
3.06E9                   -0.8349423742910109      -0.18783771190260512
3.09E9                   -0.8474222701508114      -0.11290787037098689
3.12E9                   -0.8531503183869833      -0.03726575121568684
3.15E9                   -0.8521006692139373      0.03847900250702959
3.18E9                   -0.84430287877611        0.11371802461069545
3.21E9                   -0.8298414440944315      0.18784933284265176
3.24E9                   -0.8088548556773008      0.26028235732502597
3.27E9                   -0.7815341797880271      0.3304428434211598
3.3E9                    -0.7481211867662525      0.39777758452697304
3.33E9                   -0.7089060455429392      0.4617589426106508
3.36E9                   -0.6642246078208102      0.5218891165949658
3.39E9                   -0.6144553081992284      0.5777041211874313
3.42E9                   -0.5600157095953889      0.6287774402936998
3.45E9                   -0.5013587263713041      0.6747233212179411
3.48E9                   -0.4389685616125514      0.7151996773888581
3.51E9                   -0.37335639959205963     0.7499105699025794
3.54E9                   -0.30505589990457094     0.7786082417733202
3.57E9                   -0.2346185453233577      0.8010946843675347
3.6E9                    -0.1626089001493618      0.8172227233532946
3.63E9                   -0.08959983862226438     0.8268966212947536
3.66E9                   -0.016167802761321327    0.8300722048624071
3.69E9                   0.05711185423998924      0.8267565350481807
3.72E9                   0.12966938869788366      0.8170071476836208
3.75E9                   0.20094500787888983      0.8009308985693906
3.78E9                   0.27039299686635143      0.7786824531604485
3.81E9                   0.3374856046187219       0.7504624653724825
3.84E9                   0.4017166743882921       0.7165154930149928
3.87E9                   0.46260501741711696      0.6771276964230086
3.9E9                    0.5196975427290044       0.6326243596939956
3.93E9                   0.5725721660959454       0.5833672596818679
3.96E9                   0.6208405228381519       0.5297518894341504
3.99E9                   0.6641505006252271       0.4722045252339448
4.02E9                   0.7021885910833441       0.4111791165319958
4.05E9                   0.7346820391466615       0.34715397898545136
4.08E9                   0.7614007527762787       0.28062828264357126
4.11E9                   0.782158928275322        0.21211834543062746
4.14E9                   0.7968163490360635       0.1421537611496064
4.17E9                   0.8052793266909846       0.07127340553730202
4.2E9                    0.807501269002362        2.1371163044319127E-5
4.23E9                   0.8034828743886415       -0.0710571188377873
4.26E9                   0.7932719649726281       -0.14141977506673953
4.29E9                   0.7769629764459893       -0.21053125106832643
4.32E9                   0.7546961236601192       -0.2778670742689805
4.35E9                   0.726656257069477        -0.34291748251853704
4.38E9                   0.6930714195206363       -0.4051911527168304
4.41E9                   0.6542111079711284       -0.4642188066893316
4.44E9                   0.6103842424083599       -0.5195566753249847
4.47E9                   0.5619368450786267       -0.5707897972012635
4.5E9                    0.5092494367607087       -0.6175351239418225
4.53E9                   0.4527341622128129       -0.6594444024815336
4.56E9                   0.3928316630250661       -0.6962068046004222
4.59E9                   0.33000772216186824      -0.7275512764146796
4.62E9                   0.26474970932183306      -0.7532485850971218
4.65E9                   0.19756285931391826      -0.773113046108735
4.68E9                   0.1289664158195258       -0.7870039209069836
4.71E9                   0.059489670195693914     -0.7948264806408648
4.74E9                   -0.010332079849370502    -0.796532734005603
4.77E9                   -0.07996163150919174     -0.7921218161291468
4.8E9                    -0.14886401970884613     -0.7816400307378524
4.83E9                   -0.2165106802282578      -0.7651805323043308
4.86E9                   -0.2823836042357982      -0.7428826317488905
4.89E9                   -0.3459794452897792      -0.7149307111207671
4.92E9                   -0.40681353068142745     -0.6815527402508301
4.95E9                   -0.46442372344526456     -0.6430184004097946
4.98E9                   -0.5183740814622194      -0.5996368340556961
5.01E9                   -0.5682582657886476      -0.5517540531154619
5.04E9                   -0.6137026611991563      -0.4997500483470833
5.07E9                   -0.6543691858952232      -0.44403564718888594
5.1E9                    -0.6899577819186598      -0.3850491656293705
5.13E9                   -0.7202085892371275      -0.32325289102084825
5.16E9                   -0.7449038108979652      -0.25912941968237524
5.19E9                   -0.7638692717988569      -0.19317786047534496
5.22E9                   -0.7769756609037719      -0.12590990966782423
5.25E9                   -0.7841394321044959      -0.05784580773713302
5.28E9                   -0.7853233307729147      0.01048979508677493
5.31E9                   -0.7805365177540807      0.07857201766871506
5.34E9                   -0.7698342800982615      0.145879910139702
5.37E9                   -0.7533173412425795      0.21190053700818823
5.4E9                    -0.7311308028217944      0.2761329313219812
5.43E9                   -0.7034627585112363      0.3380918896816676
5.46E9                   -0.6705426160537338      0.397311596718821
5.49E9                   -0.6326391511192848      0.45334907847389244
5.52E9                   -0.5900583022030497      0.5057874852442684
5.55E9                   -0.5431407048763429      0.5542391972270563
5.58E9                   -0.4922589591838036      0.5983487345623554
5.61E9                   -0.43781462663739623     0.637795440543026
5.64E9                   -0.3802349626093682      0.6722958959117147
5.67E9                   -0.3199694050103726      0.7016060159944977
5.7E9                    -0.2574858588971948      0.72552278382685
5.73E9                   -0.1932668349969207      0.7438855838730001
5.76E9                   -0.12780551163510784     0.7565771221514295
5.79E9                   -0.06160178823936651     0.7635239443372075
5.82E9                   0.00484161720877232      0.7646965843999207
5.85E9                   0.07102299818781842      0.7601093836690542
5.88E9                   0.1364454097279877       0.7498200121055736
5.91E9                   0.20062034037759383      0.7339287061839149
5.94E9                   0.2630713035844558       0.7125772215040262
5.97E9                   0.3233373333529883       0.6859474904610003
6.0E9                    0.3809763558015409       0.6542599774756063
