% Model:              three_layers reality at 0.1mm.mph
% Version:            COMSOL 5.6.0.280
% Date:               Feb 25 2022, 17:27
% Table:              表格 1 - 全局计算 1
% freq (Hz)              real(emw.S11) (1)        imag(emw.S11) (1)
300000000                0.5669292177949729       -0.7559269906211936
330000000                0.49577294578552655      -0.8030622925747246
360000000                0.42083275707304985      -0.8436453486916031
390000000                0.3426845494109749       -0.8773637650814797
420000000                0.2619367534016643       -0.9039560105510258
450000000                0.17922364892178566      -0.9232150502886102
480000000                0.0951993360967359       -0.9349910000436155
510000000                0.010531901429630609     -0.9391930420567555
540000000                -0.0741024476453994      -0.9357907562000879
570000000                -0.15802525351788024     -0.9248148795286326
600000000                -0.24056167111943108     -0.906357500514004
630000000                -0.32104629250220473     -0.8805716936168513
660000000                -0.3988289018314573      -0.8476705988717944
690000000                -0.47328011848902185     -0.8079259519704624
720000000                -0.5437968827091583      -0.7616660744356276
750000000                -0.6098077368213475      -0.7092733365793136
780000000                -0.6707778521661908      -0.6511811118968902
810000000                -0.7262137527883824      -0.5878702463789128
840000000                -0.7756676880878361      -0.5198650718323371
870000000                -0.8187416082502001      -0.4477289984027101
900000000                -0.8550907001584721      -0.37205972595201897
930000000                -0.8844264444034136      -0.2934841204486346
960000000                -0.906519160120153       -0.21265280434887124
990000000                -0.9212000086566156      -0.13023451569085798
1020000000               -0.9283624340507478      -0.04691029265886304
1050000000               -0.9279630242013817      0.036632456382818805
1080000000               -0.9200217841168172      0.1197059363126643
1110000000               -0.9046218192246829      0.2016279399024252
1140000000               -0.8819084341085933      0.2817277522150918
1170000000               -0.852087659115197       0.35935192375113273
1200000000               -0.8154242239740297      0.43386985428615743
1230000000               -0.7722390040653434      0.5046791317068724
1260000000               -0.7229059710159849      0.5712105739948716
1290000000               -0.6678486843407297      0.6329329273325658
1320000000               -0.6075363661034757      0.689357177527697
1350000000               -0.5424796037279817      0.7400404384702176
1380000000               -0.4732257298955091      0.7845893863197255
1410000000               -0.40035393018948273     0.8226632147110218
1440000000               -0.32447013115793477     0.8539760920816483
1470000000               -0.2462017212944045      0.8782991087753165
1500000000               -0.16619215860570158     0.8954617068992947
1530000000               -0.08509551599898231     0.90535259243751
1560000000               -0.0035710156200012833   0.9079201338877836
1590000000               0.07772239961104291      0.9031722569513163
1620000000               0.15813141118782195      0.8911758493029045
1650000000               0.23701354378679174      0.8720556934587528
1680000000               0.3137422180474861       0.8459929492320092
1710000000               0.38771160060513027      0.8132232101950003
1740000000               0.45834121877633827      0.7740341610439606
1770000000               0.5250803104791233       0.7287628645479316
1800000000               0.5874118834788881       0.6777927084352284
1830000000               0.6448564620670901       0.6215500431659063
1860000000               0.6969755018764592       0.560500542499225
1890000000               0.7433744569479338       0.49514531904745474
1920000000               0.7837054864118151       0.4260168266093602
1950000000               0.8176697902645014       0.35367458143457003
1980000000               0.8450195667214427       0.2787007335500354
2010000000               0.8655595854539353       0.20169551957727283
2040000000               0.879148373473909        0.12327262695178749
2070000000               0.8856990119880344       0.04405449981764584
2100000000               0.885179544555086        -0.03533238467298424
2130000000               0.877612998282843        -0.11426224067675661
2.16E9                   0.8630770215521832       -0.19211467088873568
2.19E9                   0.8417031431728884       -0.2682793094715492
2.22E9                   0.8136756594202919       -0.34216038383448555
2.25E9                   0.7792301566831015       -0.4131811703119578
2.28E9                   0.7386516788385123       -0.48078831870424815
2.31E9                   0.6922725489525267       -0.5444560235091244
2.34E9                   0.6404698551359822       -0.6036900202105226
2.37E9                   0.5836626084407482       -0.6580313877528418
2.4E9                    0.5223085773527443       -0.7070601378667415
2.43E9                   0.456900797402604        -0.7503985697034582
2.46E9                   0.3879637470803706       -0.7877143591066664
2.49E9                   0.31604917920823505      -0.818723332133706
2.52E9                   0.24173160726961618      -0.8431918441118045
2.55E9                   0.1656034850411155       -0.8609386563683836
2.58E9                   0.08827018834388145      -0.8718362006801028
2.61E9                   0.010344986943163903     -0.8758111799999672
2.64E9                   -0.06755577737522725     -0.872844581605656
2.67E9                   -0.14481717643636446     -0.8629713171849073
2.7E9                    -0.22082990200858177     -0.8462797427908871
2.73E9                   -0.2949944182887352      -0.8229111860791534
2.76E9                   -0.3667253013682335      -0.7930593927366973
2.79E9                   -0.43545585945598514     -0.7569696567806501
2.82E9                   -0.5006429409202635      -0.714937408195655
2.85E9                   -0.5617717315511479      -0.6673061506966788
2.88E9                   -0.6183603470965432      -0.6144647680379098
2.91E9                   -0.6699640896382858      -0.5568442871069222
2.94E9                   -0.7161793007925523      -0.4949141993105468
2.97E9                   -0.7566467853949953      -0.42917842557611086
3.0E9                    -0.7910547959592107      -0.36017098915738666
3.03E9                   -0.8191415711265577      -0.2884514456301614
3.06E9                   -0.8406974193740256      -0.21460011239392507
3.09E9                   -0.8555663375425768      -0.13921313833022683
3.12E9                   -0.8636471537226575      -0.06289745592770922
3.15E9                   -0.8648941863017634      0.013734339947793267
3.18E9                   -0.8593174145958731      0.09006914019340816
3.21E9                   -0.8469821612374621      0.16549844879228537
3.24E9                   -0.8280082916664903      0.2394234416547456
3.27E9                   -0.8025689413239487      0.311259909640378
3.3E9                    -0.7708887863050138      0.38044303994862166
3.33E9                   -0.7332418779720689      0.4464319924716
3.36E9                   -0.68994906656107        0.5087142300645456
3.39E9                   -0.6413750425643971      0.5668095654087496
3.42E9                   -0.5879250284603813      0.6202738901030185
3.45E9                   -0.5300411564059323      0.6687025558275952
3.48E9                   -0.46819856985212277     0.711733381835948
3.51E9                   -0.40290128969610334     0.7490492668207093
3.54E9                   -0.3346778866892141      0.7803803884841021
3.57E9                   -0.2640770032673415      0.8055059785034336
3.6E9                    -0.19166276814464656     0.8242556657506394
3.63E9                   -0.11801014675477664     0.8365103854721015
3.66E9                   -0.04370026980296729     0.8422028568933154
3.69E9                   0.03068422008842351      0.8413176362554989
3.72E9                   0.10456376573468909      0.8338907559356488
3.75E9                   0.17736640215228905      0.8200089632515735
3.78E9                   0.2485321408292224       0.7998085743439584
3.81E9                   0.317517202149676        0.7734739595327524
3.84E9                   0.383798067856049        0.7412356771732043
3.87E9                   0.446875326382237        0.7033682737146596
3.9E9                    0.5062772830552597       0.6601877695308644
3.93E9                   0.5615633074094802       0.6120488529500349
3.96E9                   0.6123268897908702       0.5593418098424493
3.99E9                   0.6581983822710964       0.5024892217195555
4.02E9                   0.6988474039440824       0.4419424713069304
4.05E9                   0.7339848990240289       0.37817809872620606
4.08E9                   0.7633648466303424       0.311694052110177
4.11E9                   0.786785631486568        0.24300587230989024
4.14E9                   0.8040910921649002       0.17264284256167395
4.17E9                   0.815171265281919        0.10114412327290881
4.2E9                    0.8199628399989205       0.029054882975659703
4.23E9                   0.8184493295373187       -0.043077567897727834
4.26E9                   0.8106609590927143       -0.11470763195041721
4.29E9                   0.7966742661855041       -0.18529525445720854
4.32E9                   0.7766114112879106       -0.25430970820958504
4.35E9                   0.75063920136338         -0.32123331199844435
4.38E9                   0.7189678334537448       -0.38556506299295
4.41E9                   0.6818493664548506       -0.44682416781714346
4.44E9                   0.6395759265247443       -0.5045534601229926
4.47E9                   0.592477646737283        -0.5583226923343777
4.5E9                    0.5409203381040613       -0.6077316844646063
4.53E9                   0.48530288888651363      -0.652413306235724
4.56E9                   0.4260543934453951       -0.6920362617176846
4.59E9                   0.3636310195049552       -0.7263076414200287
4.62E9                   0.2985126319961907       -0.7549752060578216
4.65E9                   0.23119920040686975      -0.7778293694425464
4.68E9                   0.1622070237795221       -0.7947048539462149
4.71E9                   0.09206481129715822      -0.8054820002176613
4.74E9                   0.021309657153238428     -0.8100877211406149
4.77E9                   -0.0495170540829232      -0.8084960971254189
4.8E9                    -0.11987378014573072     -0.8007286142794308
4.83E9                   -0.18922296486772439     -0.786854047988598
4.86E9                   -0.2570351692924113      -0.7669879927678702
4.89E9                   -0.3227931661171103      -0.7412920365345781
4.92E9                   -0.3859959706643841      -0.7099725757154729
4.95E9                   -0.44616277704459223     -0.6732792682753331
4.98E9                   -0.5028367635262011      -0.6315031252594845
5.01E9                   -0.5555887280840285      -0.5849742470086167
5.04E9                   -0.6040205138580435      -0.5340592169795769
5.07E9                   -0.6477681848774313      -0.4791581733535881
5.1E9                    -0.6865049153647471      -0.42070158540791996
5.13E9                   -0.719943560201309       -0.3591467682178846
5.16E9                   -0.747838880920491       -0.29497417402768744
5.19E9                   -0.7699894093697464      -0.22868350152645736
5.22E9                   -0.7862389395796976      -0.1607896633466362
5.25E9                   -0.79647764454818        -0.09181864838565607
5.28E9                   -0.8006428172513476      -0.022303310017419337
5.31E9                   -0.7987192335444832      0.04722089296374919
5.34E9                   -0.7907391306661206      0.11622017590261702
5.37E9                   -0.7767817922541326      0.1841666969489503
5.4E9                    -0.7569727321027834      0.25054277623590465
5.43E9                   -0.7314824750967361      0.31484501992756314
5.46E9                   -0.700524943625016       0.3765882999637822
5.49E9                   -0.6643554687653451      0.4353095408417542
5.52E9                   -0.6232684555709553      0.4905712695786262
5.55E9                   -0.5775947398123764      0.5419648922031403
5.58E9                   -0.5276986787040272      0.5891136698770444
5.61E9                   -0.4739750202054663      0.6316753782658157
5.64E9                   -0.4168455934119072      0.6693446448172957
5.67E9                   -0.3567558559450074      0.7018549675623414
5.7E9                    -0.2941713237982297      0.7289804234430557
5.73E9                   -0.22957389860599087     0.7505370710291861
5.76E9                   -0.16345810157301469     0.7663840427522135
5.79E9                   -0.09632722718308173     0.7764243098322579
5.82E9                   -0.02868944302756056     0.7806050965976047
5.85E9                   0.03894612159320801      0.7789179257165105
5.88E9                   0.1060732449787528       0.7713982913968389
5.91E9                   0.17219238753580726      0.758124977187731
5.94E9                   0.23681433043533887      0.7392190502109148
5.97E9                   0.29946365377615475      0.714842569279221
6.0E9                    0.35968204385668656      0.6851970409648174
