% Model:              three_layers reality at 0.1mm.mph
% Version:            COMSOL 5.6.0.280
% Date:               Feb 23 2022, 10:00
% Table:              表格 1 - 全局计算 1
% freq (Hz)              real(emw.S11) (1)        imag(emw.S11) (1)
300000000                0.5459614306129572       -0.7402273955593559
330000000                0.47594487168823         -0.7853710196596234
360000000                0.4023426638633744       -0.8240528674919742
390000000                0.32572322057640124      -0.855977723864881
420000000                0.24668555309803147      -0.8809015792374502
450000000                0.1658530170855741       -0.8986346273726128
480000000                0.08386730220185967      -0.9090435713017304
510000000                0.0013825362055762014    -0.9120533172721486
540000000                -0.0809405560775435      -0.9076480945713188
570000000                -0.1624404606971581      -0.8958720188781447
600000000                -0.24246064283328383     -0.8768291068538885
630000000                -0.3203552551128773      -0.8506827463790793
660000000                -0.3954947542579838      -0.8176546267349969
690000000                -0.46727138665215845     -0.7780231353511031
720000000                -0.5351045001290509      -0.7321212311877493
750000000                -0.5984456355337563      -0.6803338095105659
780000000                -0.6567833513008634      -0.6230945776185064
810000000                -0.709647733936812       -0.5608824666710713
840000000                -0.7566145486837359      -0.4942176102928024
870000000                -0.7973089874922936      -0.4236569255252482
900000000                -0.8314089739054137      -0.34978933740856744
930000000                -0.8586479890896461      -0.2732306930555464
960000000                -0.8788173880050293      -0.19461841525933354
990000000                -0.8917681802911505      -0.11460594918678131
1020000000               -0.8974122563119629      -0.03385705913876179
1050000000               -0.8957230455608773      0.046959966425578425
1080000000               -0.8867356011230391      0.12717814100912644
1110000000               -0.8705461109931932      0.2061375775728719
1140000000               -0.8473108438614618      0.2831911974016314
1170000000               -0.817244543722058       0.3577102921969315
1200000000               -0.7806182941933426      0.42908988343398624
1230000000               -0.7377568795770291      0.49675382606529644
1260000000               -0.6890356750625882      0.5601596079573009
1290000000               -0.6348771037832783      0.6188028002617817
1320000000               -0.5757467023534424      0.6722211196649504
1350000000               -0.512148840319845       0.7199980684138053
1380000000               -0.44462214162401814     0.7617661239812201
1410000000               -0.3737346581426397      0.797209456110998
1440000000               -0.30007884644009386     0.8260661550407064
1470000000               -0.22426639950788785     0.8481299604116661
1500000000               -0.1469229846238676      0.8632514863446913
1530000000               -0.06868293774068804     0.8713389434701369
1560000000               0.00981603700467204      0.8723583639354413
1590000000               0.0879381161160877       0.8663333400831181
1620000000               0.16505450986158154      0.853344291769325
1650000000               0.24054847876000984      0.833527281066322
1680000000               0.31382017552495045      0.8070723963436692
1710000000               0.38429127791321815      0.7742217305120085
1740000000               0.45140938176482365      0.7352669803346492
1770000000               0.5146521263480182       0.6905466957117333
1800000000               0.573531028444885        0.6404432088492412
1830000000               0.627595004208521        0.5853792745179484
1860000000               0.676433561816894        0.5258144528020327
1890000000               0.7196796506569143       0.4622412662579402
1920000000               0.7570121560497309       0.39518116323129404
1950000000               0.7881580314952559       0.3251803186985513
1980000000               0.8128940630986922       0.2528053036350378
2010000000               0.8310482639556963       0.17863865249367308
2040000000               0.8425008986812629       0.10327435737752991
2070000000               0.8471851410861255       0.027313314624429985
2100000000               0.845087369744142        -0.04864125366196334
2130000000               0.8362471066901908       -0.1239883858279801
2.16E9                   0.820756601646826        -0.198133964037857
2.19E9                   0.7987600553845127       -0.27049529087564284
2.22E9                   0.7704524580042573       -0.34050565762571494
2.25E9                   0.7360779910401857       -0.4076188909030477
2.28E9                   0.6959279156880029       -0.4713138245750392
2.31E9                   0.6503378713974706       -0.531098568181631
2.34E9                   0.5996845831929211       -0.5865143536523608
2.37E9                   0.5443821433081908       -0.6371387163448354
2.4E9                    0.48487822183425994      -0.6825879032984932
2.43E9                   0.4216505943733113       -0.7225187014198995
2.46E9                   0.3552041243634852       -0.7566301396213226
2.49E9                   0.28606793750906107      -0.7846654802444046
2.52E9                   0.214792308417619        -0.8064145659617193
2.55E9                   0.1419449134646568       -0.8217162250099398
2.58E9                   0.06810642356812391      -0.8304603291976698
2.61E9                   -0.006134355175240103    -0.8325892355787451
2.64E9                   -0.08018553673709548     -0.8280985401451165
2.67E9                   -0.15345721931872625     -0.8170371966566905
2.7E9                    -0.2253664599395945      -0.7995070882795813
2.73E9                   -0.29534211842744273     -0.7756621241865855
2.76E9                   -0.36282955360159835     -0.745706906116854
2.79E9                   -0.42729515693024384     -0.7098949894363734
2.82E9                   -0.48823070414092734     -0.668526752667612
2.85E9                   -0.5451574983380225      -0.6219468870012288
2.88E9                   -0.5976302740132334      -0.5705415189575483
2.91E9                   -0.6452408284080544      -0.5147349836662581
2.94E9                   -0.6876213465872416      -0.45498627087664156
2.97E9                   -0.7244473873306818      -0.3917851709894298
3.0E9                    -0.7554404995612121      -0.32564815275329345
3.03E9                   -0.7803704419934442      -0.2571140086661043
3.06E9                   -0.7990569827575338      -0.18673930757739013
3.09E9                   -0.8113712602318736      -0.11509369692593335
3.12E9                   -0.817236691236759       -0.042755099376082
3.15E9                   -0.8166294180535207      0.029695150181946517
3.18E9                   -0.8095782910104229      0.101677180396742
3.21E9                   -0.7961643887390542      0.17261742567366756
3.24E9                   -0.7765200831760931      0.24195338930660598
3.27E9                   -0.7508276610036417      0.30913828356698136
3.3E9                    -0.7193175172225517      0.37364550508820316
3.33E9                   -0.6822659401246742      0.4349729056781527
3.36E9                   -0.6399925099554912      0.4926468211630458
3.39E9                   -0.5928571364456973      0.5462258226925543
3.42E9                   -0.541256763303401       0.5953041567222124
3.45E9                   -0.48562177103229553     0.6395148415567783
3.48E9                   -0.4264121133140433      0.6785323902447615
3.51E9                   -0.3641132267966672      0.7120751321726916
3.54E9                   -0.2992317592144608      0.7399071096436443
3.57E9                   -0.23229116586362075     0.7618395314314481
3.6E9                    -0.1638272284290661      0.7777317731713557
3.63E9                   -0.09438355214965935     0.7874919238959379
3.66E9                   -0.02450709645145892     0.7910768881657353
3.69E9                   0.04525620960020049      0.7884920627618658
3.72E9                   0.11436572156866642      0.7797906147167257
3.75E9                   0.18229016498162381      0.7650723934670153
3.78E9                   0.24851152094875462      0.7444825145704423
3.81E9                   0.31252868971247616      0.7182096560410618
3.84E9                   0.3738609204562149       0.6864841102602153
3.87E9                   0.4320510082015592       0.6495756324726175
3.9E9                    0.48666827051259054      0.6077911191719801
3.93E9                   0.5373113246834816       0.561472135874929
3.96E9                   0.5836106856558356       0.5109922968482989
3.99E9                   0.6252311952650906       0.456754484426728
4.02E9                   0.6618742763673979       0.3991878885795319
4.05E9                   0.6932799873854112       0.33874485047152975
4.08E9                   0.7192288389438183       0.27589750673026237
4.11E9                   0.7395433294987264       0.21113424883632154
4.14E9                   0.7540891614465246       0.14495602943441216
4.17E9                   0.7627761109874595       0.07787255979781756
4.2E9                    0.7655585401878668       0.010398447747938067
4.23E9                   0.762435554065938        -0.05695067677187487
4.26E9                   0.7534508160253787       -0.12366200884847839
4.29E9                   0.7386920399917799       -0.1892293585074321
4.32E9                   0.7182901772578912       -0.2531568628327367
4.35E9                   0.6924183119831213       -0.3149626055020492
4.38E9                   0.6612902738882025       -0.3741821310387934
4.41E9                   0.6251589724207186       -0.43037183913441446
4.44E9                   0.5843144550270666       -0.4831122403556071
4.47E9                   0.5390816934657954       -0.5320110502372114
4.5E9                    0.48981810593955544      -0.5767060953447806
4.53E9                   0.43691082799276587      -0.6168680035499512
4.56E9                   0.38077375084169385      -0.6522026514251444
4.59E9                   0.32184435108015724      -0.6824533444240503
4.62E9                   0.2605803398843369       -0.7074027100276806
4.65E9                   0.19745616198254778      -0.7268742898795075
4.68E9                   0.13295937436292657      -0.7407338228964896
4.71E9                   0.06758693168118715      -0.7488902161302482
4.74E9                   0.0018414007435367807    -0.751296202001371
4.77E9                   -0.06377287749806229     -0.7479486787986853
4.8E9                    -0.12875366119646012     -0.7388887268351838
4.83E9                   -0.1926046954047431      -0.7242012877589925
4.86E9                   -0.25483958633125703     -0.7040144923182998
4.89E9                   -0.31498562481782993     -0.6784986244518569
4.92E9                   -0.3725875137561608      -0.6478647173441691
4.95E9                   -0.4272109502336012      -0.6123627885371042
4.98E9                   -0.47844601416366345     -0.5722797340413434
5.01E9                   -0.5259103215158014      -0.5279369130261715
5.04E9                   -0.5692519107894362      -0.4796874629017716
5.07E9                   -0.6081518442415742      -0.4279133878482737
5.1E9                    -0.6423265182929498      -0.37302246083649887
5.13E9                   -0.6715296867899481      -0.3154449705221245
5.16E9                   -0.6955542034053102      -0.25563033223208953
5.19E9                   -0.714233483638499       -0.19404357145015505
5.22E9                   -0.727442674517371       -0.13116168430559047
5.25E9                   -0.7350995071222421      -0.067469886137743
5.28E9                   -0.737164800960796       -0.0034577749372636025
5.31E9                   -0.7336425952525037      0.0603845452936505
5.34E9                   -0.7245798993869551      0.12357032447635621
5.37E9                   -0.7100660762645176      0.18561995355808053
5.4E9                    -0.6902318888572948      0.24606463522053146
5.43E9                   -0.6652482461272682      0.3044499130927769
5.46E9                   -0.635324679062268       0.3603390505434856
5.49E9                   -0.6007075654132562      0.4133162586653656
5.52E9                   -0.5616781087950657      0.4629897723261765
5.55E9                   -0.5185500687864609      0.5089947654909454
5.58E9                   -0.4716672359715437      0.5509960856044092
5.61E9                   -0.42140064973772395     0.5886907752947619
5.64E9                   -0.36814556641624824     0.62181034049966
5.67E9                   -0.3123182000055149      0.6501227196835788
5.7E9                    -0.2543522748899307      0.6734339117872455
5.73E9                   -0.1946954460161143      0.6915892324285462
5.76E9                   -0.1338056509459122      0.7044741881865775
5.79E9                   -0.07214745500380619     0.7120149821256001
5.82E9                   -0.010188435070905832    0.7141786814393687
5.85E9                   0.05160437441895471      0.7109730828626886
5.88E9                   0.11276796793876685      0.7024463024743286
5.91E9                   0.17284678894832997      0.6886861001890854
5.94E9                   0.23139607933223766      0.6698189350779193
5.97E9                   0.2879851415880465       0.6460087419505947
6.0E9                    0.34220048516364604      0.6174554230133
