% Model:              three_layers reality at 0.1mm.mph
% Version:            COMSOL 5.6.0.280
% Date:               Mar 3 2022, 14:38
% Table:              表格 1 - 全局计算 1
% freq (Hz)              real(emw.S11) (1)        imag(emw.S11) (1)
300000000                0.6172820883403418       -0.7467491952676778
330000000                0.549803134874453        -0.7972523347864332
360000000                0.47845239863391176      -0.8415643197157817
390000000                0.4036445915896824       -0.87954924707078
420000000                0.32592816960935167      -0.9109398477688349
450000000                0.2458742976782519       -0.9355154838082428
480000000                0.16407203652834143      -0.9531043219328214
510000000                0.08112411633932909      -0.9635850219241604
540000000                -0.002357609955277873    -0.9668879939794452
570000000                -0.08575678994494532     -0.9629961990472155
600000000                -0.16845723708580282     -0.9519455026581085
630000000                -0.24984760045798354     -0.9338245901397624
660000000                -0.32932600231958126     -0.9087744518403463
690000000                -0.40630460985762645     -0.8769874469371886
720000000                -0.4802141035806248      -0.8387059568790047
750000000                -0.5505080086992663      -0.7942206410342294
780000000                -0.6166668559495174      -0.7438683092472447
810000000                -0.6782021379837357      -0.6880294293362805
840000000                -0.7346600308647684      -0.627125289153845
870000000                -0.7856248500977201      -0.5616148364297564
900000000                -0.8307222142685511      -0.4919912208903953
930000000                -0.8696218898323811      -0.41877806732732953
960000000                -0.9020402947938857      -0.34252550833996276
990000000                -0.9277426405237263      -0.2638060096122238
1020000000               -0.946544694737625       -0.18321002062500524
1050000000               -0.9583141512901712      -0.10134148627183592
1080000000               -0.9629715961119736      -0.018813255729408253
1110000000               -0.960491061846366       0.0637575747300927
1140000000               -0.950900167308578       0.1457543468830613
1170000000               -0.9342798414143183      0.22656551644553563
1200000000               -0.9107636348035207      0.3055892814658525
1230000000               -0.8805366256969333      0.38223812714763294
1260000000               -0.8438339302258137      0.45594325007298986
1290000000               -0.8009388305092573      0.526158827614545
1320000000               -0.7521805368693034      0.5923660990550673
1350000000               -0.6979316038450922      0.6540772266789818
1380000000               -0.6386050218824524      0.7108389078237695
1410000000               -0.574651009539613       0.7622357104864366
1440000000               -0.5065535328458257      0.8078931082072608
1470000000               -0.4348265810164878      0.8474801920828391
1500000000               -0.3600102282701572      0.8807120414434462
1530000000               -0.2826665143532983      0.9073517365862444
1560000000               -0.20337517604097224     0.9272120010527533
1590000000               -0.12272926351513612     0.9401564632812722
1620000000               -0.04133067555545207     0.9461005309372678
1650000000               0.0402143520130096       0.9450118740900519
1680000000               0.12129977078180226      0.9369105165430878
1710000000               0.20132422301238934      0.921868537506316
1740000000               0.2796954906097126       0.9000093887120683
1770000000               0.3558348577326296       0.871506834718484
1800000000               0.4291813553018717       0.8365835269565184
1830000000               0.49919585773623754      0.7955092243292654
1860000000               0.5653650032002366       0.7485986756426725
1890000000               0.6272049102164534       0.6962091813577914
1920000000               0.6842646654107192       0.6387378540076897
1950000000               0.7361295589381481       0.5766185985788015
1980000000               0.7824240459319065       0.5103188358416088
2010000000               0.8228144144825404       0.44033599313513644
2040000000               0.8570111429293263       0.36719378807878783
2070000000               0.8847709308464978       0.29143833286730275
2100000000               0.9058983912712986       0.2136340861201604
2130000000               0.9202473930049764       0.13435968211355429
2.16E9                   0.9277220449563537       0.054203666077576096
2.19E9                   0.9282773164546427       -0.026239834200355812
2.22E9                   0.9219192899074063       -0.10637547001480055
2.25E9                   0.9087050447657902       -0.18561103672161644
2.28E9                   0.8887421740044481       -0.2633618112839317
2.31E9                   0.8621879368131993       -0.33905483282731813
2.34E9                   0.8292480534868858       -0.41213309652792995
2.37E9                   0.7901751505368364       -0.48205963252633766
2.4E9                    0.7452668660473301       -0.5483214419279696
2.43E9                   0.6948636262819559       -0.6104332636732414
2.46E9                   0.6393461056884253       -0.6679411457437764
2.49E9                   0.5791323829249304       -0.7204257940825021
2.52E9                   0.5146748066683656       -0.7675056704079397
2.55E9                   0.44645658978801317      -0.8088398060195744
2.58E9                   0.37498815867298885      -0.844130296973151
2.61E9                   0.30080329773906733      -0.8731244492197352
2.64E9                   0.2244551406288814       -0.895616556114807
2.67E9                   0.146512058913671        -0.9114493121544026
2.7E9                    0.06755348299837607      -0.9205148831570519
2.73E9                   -0.011834333863358283    -0.9227556515391626
2.76E9                   -0.0910626102746278      -0.9181646361127597
2.79E9                   -0.1695443842077829      -0.9067855649391211
2.82E9                   -0.24669888788987554     -0.8887125728795585
2.85E9                   -0.3219559059449936      -0.864089504795391
2.88E9                   -0.3947600680513514      -0.8331088210883328
2.91E9                   -0.46457502938512935     -0.7960101155951494
2.94E9                   -0.5308874996813898      -0.7530782630558939
2.97E9                   -0.5932110874565256      -0.7046412163500972
3.0E9                    -0.6510899300407723      -0.6510674747380703
3.03E9                   -0.7041020827871018      -0.5927632449812679
3.06E9                   -0.7518626423032997      -0.5301693187045814
3.09E9                   -0.7940265807877657      -0.4637576904487441
3.12E9                   -0.8302912697022639      -0.3940279434769937
3.15E9                   -0.8603986739708316      -0.3215034315306158
3.18E9                   -0.8841371999327443      -0.24672728701479776
3.21E9                   -0.9013431833519745      -0.17025828712685342
3.24E9                   -0.9119020065921243      -0.09266661114507746
3.27E9                   -0.9157488373211052      -0.014529522337447196
3.3E9                    -0.9128689842209797      0.06357299091683115
3.33E9                   -0.9032978684212453      0.1410625804853202
3.36E9                   -0.8871206125929727      0.21736687594487958
3.39E9                   -0.864471252744087       0.2919237601154047
3.42E9                   -0.8355315808875222      0.3641855496937372
3.45E9                   -0.8005296297085991      0.43362304865282075
3.48E9                   -0.7597378130967621      0.49972944388900936
3.51E9                   -0.7134707393463788      0.5620240134122825
3.54E9                   -0.6620827159735426      0.6200556201193962
3.57E9                   -0.6059649677787824      0.6734059653246802
3.6E9                    -0.5455425915717108      0.7216925790886132
3.63E9                   -0.4812712730373324      0.7645715264264035
3.66E9                   -0.4136337925709852      0.8017398112857477
3.69E9                   -0.34313634831905787     0.8329374627012822
3.72E9                   -0.27030472558080537     0.8579492902957849
3.75E9                   -0.19568034216035723     0.8766062991076329
3.78E9                   -0.11981619987129566     0.888786756198861
3.81E9                   -0.04327277244716665     0.8944169040912826
3.84E9                   0.03338614001864411      0.8934713184973289
3.87E9                   0.10959755970509627      0.8859729100873954
3.9E9                    0.18480345280441332      0.8719925723767523
3.93E9                   0.2584547941292225       0.8516484802953793
3.96E9                   0.3300155449880734       0.8251050465676641
3.99E9                   0.3989665150040267       0.7925715459084521
4.02E9                   0.46480907972080754      0.7543004199938254
4.05E9                   0.5270687275234153       0.7105852790238267
4.08E9                   0.5852984114323391       0.6617586184310493
4.11E9                   0.6390816845272309       0.6081892709369363
4.14E9                   0.6880356001252373       0.5502796155443751
4.17E9                   0.7318133608710333       0.4884625649029484
4.2E9                    0.7701067022520566       0.42319835272731016
4.23E9                   0.8026479974022724       0.35497114271355745
4.26E9                   0.8292120707086664       0.28428548111082413
4.29E9                   0.8496177086716771       0.21166261633782507
4.32E9                   0.8637288581511321       0.1376367104238466
4.35E9                   0.8714555043488172       0.062750968351549
4.38E9                   0.8727542234926976       -0.01244628841280082
4.41E9                   0.8676284074861759       -0.08740557759438994
4.44E9                   0.8561281597219325       -0.16158021538616738
4.47E9                   0.8383498625232403       -0.23443025380606689
4.5E9                    0.8144354178926904       -0.3054263703171832
4.53E9                   0.7845711645247246       -0.3740536840561556
4.56E9                   0.7489864760648921       -0.439815471396945
4.59E9                   0.707952047821404        -0.5022367540551763
4.62E9                   0.661777882303555        -0.5608677319318476
4.65E9                   0.6108109866985721       -0.6152870343676757
4.68E9                   0.5554327988668118       -0.665104763889146
4.71E9                   0.49605636081024684      -0.7099653090555071
4.74E9                   0.4331232611622232       -0.7495499048895384
4.77E9                   0.3671003698085857       -0.7835789221327969
4.8E9                    0.29847638894862705      -0.811813869011038
4.83E9                   0.22775824556243568      -0.8340590915100695
4.86E9                   0.15546735081321827      -0.8501631599949736
4.89E9                   0.08213575260611261      -0.860019931677136
4.92E9                   0.008302208344924011     -0.8635692800102324
4.95E9                   -0.06549179381167036     -0.8607974838944851
4.98E9                   -0.13870603575539617     -0.8517372718151649
5.01E9                   -0.2108055619885054      -0.8364675186276854
5.04E9                   -0.2812646327402199      -0.8151125956474161
5.07E9                   -0.34957060640170107     -0.7878413778520041
5.1E9                    -0.41522772011895803     -0.7548659152778716
5.13E9                   -0.47776073816666076     -0.7164397789659729
5.16E9                   -0.5367184387862576      -0.672856095178549
5.19E9                   -0.5916769123200601      -0.6244452844291223
5.22E9                   -0.6422426453435393      -0.5715725246580409
5.25E9                   -0.6880553685403606      -0.5146349594085086
5.28E9                   -0.7287906480597056      -0.4540586732462383
5.31E9                   -0.7641622021197678      -0.39029545740696164
5.34E9                   -0.7939239260744536      -0.32381938947050476
5.37E9                   -0.8178716101853871      -0.25512325249045337
5.4E9                    -0.8358443360588634      -0.18471482078969728
5.43E9                   -0.8477255398837749      -0.11311304196854294
5.46E9                   -0.8534437337857043      -0.0408441463470548
5.49E9                   -0.8529728802110021      0.031562283562393025
5.52E9                   -0.8463324181719909      0.1035772505577846
5.55E9                   -0.8335869441052882      0.17467625458886574
5.58E9                   -0.8148455538127719      0.2443431472462622
5.61E9                   -0.7902608553405166      0.312073898934176
5.64E9                   -0.7600276654931174      0.3773802510768936
5.67E9                   -0.7243814045777281      0.439793228446302
5.7E9                    -0.683596205007228       0.498866489029726
5.73E9                   -0.6379827492893035      0.5541794910830201
5.76E9                   -0.5878858530172727      0.6053404572243843
5.79E9                   -0.5336818092084482      0.6519891151853457
5.82E9                   -0.47577551278866337     0.6937991942334475
5.85E9                   -0.414597387798703       0.7304806570044664
5.88E9                   -0.35060014380977816     0.7617816492510043
5.91E9                   -0.28425539053474264     0.7874901545632542
5.94E9                   -0.21605014037787695     0.8074353459449614
5.97E9                   -0.14648322736533112     0.8214886304683422
6.0E9                    -0.07606166900642837     0.8295643860085895
