% Model:              three_layers reality at 0.1mm.mph
% Version:            COMSOL 5.6.0.280
% Date:               Feb 22 2022, 16:08
% Table:              表格 1 - 全局计算 1
% freq (Hz)              real(emw.S11) (1)        imag(emw.S11) (1)
300000000                0.4053160919321787       -0.7701205270069839
330000000                0.32202923091903524      -0.8057605924704507
360000000                0.23582866742434644      -0.8326220966544252
390000000                0.1476080904208704       -0.8504632498958611
420000000                0.05828663900959104      -0.8591362225606276
450000000                -0.03120272897395502     -0.8585890856231533
480000000                -0.11992443690329857     -0.8488665814297504
510000000                -0.20695114613208077     -0.8301097508038375
540000000                -0.2913742757093249      -0.8025544449272295
570000000                -0.372314145458603       -0.7665287558305814
600000000                -0.4489296793258637      -0.7224494067281606
630000000                -0.5204275931364707      -0.6708171520005477
660000000                -0.5860709862581555      -0.6122112456335664
690000000                -0.645187256536095       -0.5472830460048563
720000000                -0.6971752610166757      -0.47674883387885547
750000000                -0.7415116511074022      -0.40138192840728293
780000000                -0.777756317963097       -0.32200419387079016
810000000                -0.8055568934561465      -0.2394770358999807
840000000                -0.8246522618701513      -0.1546919918302483
870000000                -0.8348750487963935      -0.0685610236206264
900000000                -0.8361530651755509      0.017993375116667456
930000000                -0.828509696516222       0.10404814496598258
960000000                -0.8120632395023272      0.18868958633469463
990000000                -0.7870252003511355      0.2710231330729136
1020000000               -0.7536975812252349      0.3501828648591445
1050000000               -0.712469192521989       0.4253406532856519
1080000000               -0.6638110398160726      0.49571484174009933
1110000000               -0.6082708444907826      0.560578365645491
1140000000               -0.5464667664183708      0.61926622720876
1170000000               -0.47908040551040537     0.6711822471933299
1200000000               -0.40684916620788825     0.7158050256013496
1230000000               -0.33055807519071917     0.7526930530317982
1260000000               -0.25103114760855477     0.7814889248986092
1290000000               -0.16912240072846407     0.8019226216201747
1320000000               -0.08570661651734267     0.813813828777405
1350000000               -0.0016699558851684061   0.8170732823826246
1380000000               0.08209947277302963      0.8117031354072823
1410000000               0.16472098899974022      0.7977963524247376
1440000000               0.24533056044088453      0.7755351497429237
1470000000               0.3230897716529455       0.7451885083314764
1500000000               0.39719444979549917      0.7071087963238549
1530000000               0.4668828605875073       0.6617275466767005
1560000000               0.5314433938420985       0.6095504436840249
1590000000               0.5902216645433812       0.5511515794015395
1620000000               0.6426269626694986       0.4871670475909922
1650000000               0.6881379927278843       0.4182879485129523
1680000000               0.7263078521975775       0.3452528827384338
1710000000               0.7567682065601677       0.268840016177309
1740000000               0.7792326275268568       0.1898588014908515
1770000000               0.7934990700084559       0.10914144337281113
1800000000               0.7994514726687858       0.02753419624583081
1830000000               0.7970604761281614       -0.054111416684767925
1860000000               0.7863832622951986       -0.13494737501503587
1890000000               0.7675625275971463       -0.2141378371991537
1920000000               0.7408246121077927       -0.29086763833475726
1950000000               0.7064768154606917       -0.36435053176938925
1980000000               0.6649039386427816       -0.433837103558832
2010000000               0.6165640975398177       -0.4986222982615009
2040000000               0.5619838581632312       -0.5580525068352181
2070000000               0.5017527424161804       -0.6115321829580547
2100000000               0.436517143262153        -0.6585299716112406
2130000000               0.3669736637696815       -0.6985843493875109
2.16E9                   0.29386184981291613      -0.7313087795620853
2.19E9                   0.2179562197229526       -0.7563963561130748
2.22E9                   0.14005742114513264      -0.7736238168963143
2.25E9                   0.0609823189598389       -0.7828546128985333
2.28E9                   -0.018447050794311616    -0.7840404335264441
2.31E9                   -0.09741529599191896     -0.7772203363460715
2.34E9                   -0.17512513433359198     -0.7625167347601622
2.37E9                   -0.2508066698837918      -0.7401283418867388
2.4E9                    -0.32372275311411597     -0.7103217023505655
2.43E9                   -0.39317026474282823     -0.6734241771815731
2.46E9                   -0.4584795187551241      -0.6298207589626452
2.49E9                   -0.5190151867865423      -0.5799547037443081
2.52E9                   -0.5741809659908734      -0.5243294895801869
2.55E9                   -0.6234276888553413      -0.46350905560860495
2.58E9                   -0.666262820129315       -0.3981146760973736
2.61E9                   -0.7022592155968207      -0.32881862817270735
2.64E9                   -0.731061965554251       -0.2563357828682414
2.67E9                   -0.7523931065159808      -0.18141428628599443
2.7E9                    -0.7660544965872026      -0.10482609979142454
2.73E9                   -0.7719292625388041      -0.027357763262030595
2.76E9                   -0.7699821461575486      0.05019850606119086
2.79E9                   -0.7602589570722981      0.12705337484140147
2.82E9                   -0.7428852448150587      0.20242863434545344
2.85E9                   -0.7180642465840118      0.2755651274920957
2.88E9                   -0.6860741408102664      0.34573034803293023
2.91E9                   -0.647264628848017       0.4122256790349466
2.94E9                   -0.602052869260195       0.47439322532444816
2.97E9                   -0.5509187959264236      0.53162218762901
3.0E9                    -0.4943998596097009      0.5833547239588815
3.03E9                   -0.43308524110082836     0.6290912451326554
3.06E9                   -0.3676095919784791      0.6683950952206335
3.09E9                   -0.2986463657079176      0.7008965736965402
3.12E9                   -0.22690080715394378     0.7262962634362329
3.15E9                   -0.1531026721133758      0.7443676371088501
3.18E9                   -0.07799875008749933     0.7549589232287932
3.21E9                   -0.0023452630840782975   0.7579942215027786
3.24E9                   0.07309978876647172      0.7534738642527629
3.27E9                   0.1475842671920626       0.741474026010132
3.3E9                    0.22036945667762106      0.7221455864289359
3.33E9                   0.2907374833174135       0.6957122527180917
3.36E9                   0.35799852777711244      0.6624679477124538
3.39E9                   0.42149776438477443      0.6227734699526064
3.42E9                   0.48062195087710524      0.5770524346770817
3.45E9                   0.5348055833006357       0.5257865115606924
3.48E9                   0.5835365201230062       0.46950998822567264
3.51E9                   0.6263609717731584       0.40880370907470615
3.54E9                   0.6628877508184673       0.34428846620147213
3.57E9                   0.6927916876045658       0.27661795014956225
3.6E9                    0.7158161389211308       0.20647139759710642
3.63E9                   0.7317745519701785       0.1345460942077011
3.66E9                   0.7405510878462267       0.0615498985124375
3.69E9                   0.7421003507306279       -0.011806054975232993
3.72E9                   0.7364463048137264       -0.08481433483142142
3.75E9                   0.7236804886994567       -0.15677776214740866
3.78E9                   0.7039596588354193       -0.22701544918916158
3.81E9                   0.6775030114792454       -0.2948682831462792
3.84E9                   0.6445891432563663       -0.3597038593250439
3.87E9                   0.6055529023164681       -0.4209209289884521
3.9E9                    0.5607822422604113       -0.4779534902229367
3.93E9                   0.5107151152608541       -0.5302746934825727
3.96E9                   0.45583634232612735      -0.5774007332619018
3.99E9                   0.3966743069868601       -0.6188948417007635
4.02E9                   0.3337972668749979       -0.6543713992871016
4.05E9                   0.2678090864807805       -0.6835000619681803
4.08E9                   0.1993442617969107       -0.7060097095694537
4.11E9                   0.12906221101498758      -0.7216919745460725
4.14E9                   0.057640912677322124     -0.7304041212395556
4.17E9                   -0.014229944974358234    -0.7320711034435216
4.2E9                    -0.08585609860290618     -0.7266867102169163
4.23E9                   -0.1565459257037631      -0.7143137920216609
4.26E9                   -0.22561757481651057     -0.6950836216264441
4.29E9                   -0.29240589500434816     -0.6691944761624811
4.32E9                   -0.35626909989615385     -0.6369095280206695
4.35E9                   -0.41659513584290986     -0.5985541117217166
4.38E9                   -0.4728077357930289      -0.5545124053517076
4.41E9                   -0.5243721325767563      -0.5052235420532789
4.44E9                   -0.570800386149478       -0.45117715783121703
4.47E9                   -0.6116562589241081      -0.3929083884730752
4.5E9                    -0.6465595599285415      -0.3309923469371991
4.53E9                   -0.6751898759292447      -0.2660381374010507
4.56E9                   -0.6972896167317209      -0.1986824872315527
4.59E9                   -0.7126663212252579      -0.12958309886855643
4.62E9                   -0.7211941979838064      -0.05941183588929949
4.65E9                   -0.7228149055167615      0.011152141957545207
4.68E9                   -0.7175376065975467      0.08142919328051926
4.71E9                   -0.7054383507234147      0.15074588337948744
4.74E9                   -0.6866588417894518      0.21844150212550859
4.77E9                   -0.6614046325085061      0.28387439312565504
4.8E9                    -0.6299427591190956      0.3464280852796531
4.83E9                   -0.5925988024490516      0.40551720498274135
4.86E9                   -0.549753348711815       0.4605931165029398
4.89E9                   -0.5018378339799779      0.5111492020353019
4.92E9                   -0.4493297891307777      0.55672566635948
4.95E9                   -0.39274754802958456     0.5969137447885883
4.98E9                   -0.33264452830997576     0.6313592108281555
5.01E9                   -0.2696032295714705      0.6597651189183029
5.04E9                   -0.20422910947633116     0.6818937706264809
5.07E9                   -0.13714448846087973     0.6975679498002081
5.1E9                    -0.06898259739780262     0.7066715206474898
5.13E9                   -3.818246439626805E-4    0.7091495083729551
5.16E9                   0.06801984618013411      0.7050077729368269
5.19E9                   0.13559026624566092      0.6943123405950303
5.22E9                   0.2017084898819098       0.6771883891056718
5.25E9                   0.26577011564822667      0.653818820138415
5.28E9                   0.32719256350424697      0.6244423286789087
5.31E9                   0.3854201800111298       0.5893509101278077
5.34E9                   0.43992902925006877      0.5488868187839726
5.37E9                   0.4902312492190218       0.5034390704536784
5.4E9                    0.53587892065224         0.45343962858543796
5.43E9                   0.5764674747595278       0.3993594078511577
5.46E9                   0.6116387234224718       0.3417041786111672
5.49E9                   0.6410836104613523       0.2810103852067363
5.52E9                   0.6645447560640776       0.217840828430057
5.55E9                   0.6818188127294896       0.1527801264721217
5.58E9                   0.6927585883816274       0.08642986577141248
5.61E9                   0.6972748363866611       0.01940338118229854
5.64E9                   0.6953375746212018       -0.04767984280950245
5.67E9                   0.6869767856937319       -0.11420009018492668
5.7E9                    0.6722823755108461       -0.17954352079112723
5.73E9                   0.6514033293909421       -0.2431082835918555
5.76E9                   0.6245460922649475       -0.3043104386517752
5.79E9                   0.591972283518326        -0.36258953013855466
5.82E9                   0.553995901859199        -0.41741373500145296
5.85E9                   0.5109801601928233       -0.4682846015824262
5.88E9                   0.4633340254985992       -0.5147414471294146
5.91E9                   0.4115084613457802       -0.556365481359385
5.94E9                   0.3559923198745155       -0.5927836753879154
5.97E9                   0.2973078235982303       -0.623672332673085
6.0E9                    0.23600560795819342      -0.6487602702763406
