% Model:              cali 3.02 0.91mm 跑组织的.mph
% Version:            COMSOL 5.6.0.280
% Date:               Apr 18 2022, 20:36
% Table:              表格 1 - 全局计算 1
% freq (Hz)              real(emw.S11) (1)        imag(emw.S11) (1)
110000000                0.8742887384977103       -0.34302242846036923
120000000                0.8619319979919418       -0.37240159216446583
130000000                0.8485906920804471       -0.40132997970930745
140000000                0.8342813991832596       -0.4297747273345266
150000000                0.8190217848876856       -0.45770357984395293
160000000                0.8028305815454146       -0.4850849254123423
170000000                0.7857275656677655       -0.5118878313085858
180000000                0.7677335340277125       -0.5380820787150231
190000000                0.748870278563809        -0.5636381963438829
200000000                0.7291605599720786       -0.5885274932584288
210000000                0.7086280794870394       -0.6127220914426652
220000000                0.6872974506771652       -0.6361949559964875
230000000                0.665194169073795        -0.6589199255063589
240000000                0.6423445811820347       -0.6808717406976501
250000000                0.6187758528368843       -0.7020260718099443
260000000                0.5945159361174887       -0.7223595454006079
270000000                0.5695935359525107       -0.7418497692816846
280000000                0.5440380752739415       -0.7604753567989208
290000000                0.5178796602858136       -0.778215949432816
300000000                0.491149043848149        -0.7950522387176682
310000000                0.46387758947319924      -0.8109659861618177
320000000                0.4360972338043082       -0.8259400425952562
330000000                0.4078404487446308       -0.8399583656159978
340000000                0.37914020311663815      -0.853006036307477
350000000                0.3500299241151851       -0.8650692740151815
360000000                0.32054345760066116      -0.8761354503151122
370000000                0.290715028527416        -0.8861931013418488
380000000                0.26057920113279354      -0.895231938692896
390000000                0.23017083838788235      -0.9032428592840497
400000000                0.19952506136947454      -0.9102179533937331
410000000                0.16867720844474318      -0.916150511804085
420000000                0.1376627946178571       -0.9210350310820543
430000000                0.1065174698910143       -0.9248672177176748
440000000                0.07527697851832826      -0.927643990825461
450000000                0.043977117542186056     -0.9293634836174542
460000000                0.012653695798701393     -0.9300250430396186
470000000                -0.01865750721841124     -0.9296292284378007
480000000                -0.04992078256165442     -0.9281778086372484
490000000                -0.08110053237422275     -0.9256737576388252
500000000                -0.11216131059172413     -0.9221212492420268
510000000                -0.14306786347912492     -0.9175256495688837
520000000                -0.17378516952846682     -0.911893509242297
530000000                -0.20427847909885985     -0.9052325531693397
540000000                -0.23451335398637385     -0.897551669909751
550000000                -0.26445570622538056     -0.8888608992599007
560000000                -0.29407183623943        -0.8791714182776108
570000000                -0.3233284711917005      -0.8684955268479003
580000000                -0.3521928020290281      -0.8568466311147711
590000000                -0.3806325200455608      -0.8442392262549202
600000000                -0.40861585342763046     -0.8306888778137156
610000000                -0.43611160209868544     -0.8162122017055999
620000000                -0.4630891727484091      -0.8008268434372774
630000000                -0.4895186124341684      -0.7845514558613288
640000000                -0.515370641837075       -0.7674056759063043
650000000                -0.5406166875992228      -0.7494101001383882
660000000                -0.5652289131880467      -0.730586259642983
670000000                -0.5891802499039102      -0.710956593292988
680000000                -0.612444425973363       -0.6905444205531285
690000000                -0.6349959952851427      -0.6693739129535285
700000000                -0.6568103647610588      -0.6474700649175507
710000000                -0.6778638207969058      -0.6248586636301643
720000000                -0.6981335548354162      -0.6015662577866336
730000000                -0.7175976874442365      -0.5776201260101382
740000000                -0.7362352915877441      -0.5530482441389982
750000000                -0.7540264145810707      -0.5278792519796742
760000000                -0.7709520990984636      -0.5021424191060925
770000000                -0.7869944026359521      -0.4758676104073031
780000000                -0.8021364161552843      -0.4490852505584954
790000000                -0.8163622811265455      -0.42182628843607334
800000000                -0.8296572056007673      -0.39412216064544614
810000000                -0.842007478918826       -0.36600475456854875
820000000                -0.8534004850966111      -0.33750637120504745
830000000                -0.8638247149993403      -0.30865968753178213
840000000                -0.8732697771060436      -0.2794977185287359
850000000                -0.8817264071732702      -0.2500537786106657
860000000                -0.8891864763427924      -0.22036144341244418
870000000                -0.8956429980636806      -0.19045451069775082
880000000                -0.9010901336645705      -0.16036696165346187
890000000                -0.9055231965116651      -0.13013292180569966
900000000                -0.9089386549719745      -0.09978662197269053
910000000                -0.911334133967349       -0.06936235882981863
920000000                -0.9127084151760061      -0.03889445621799858
930000000                -0.9130614359795737      -0.00841722566698083
940000000                -0.9123942869886321      0.02203507222066749
950000000                -0.9107092083505202      0.05242826662958425
960000000                -0.9080095847430365      0.08272831502215677
970000000                -0.9042999389528174      0.11290134177553912
980000000                -0.8995859243573492      0.1429136757480096
990000000                -0.8938743159553024      0.1727318884651119
1000000000               -0.8871730002699327      0.20232283108965385
1010000000               -0.8794909639177239      0.23165367139198098
1020000000               -0.8708382810903755      0.2606919301229171
1030000000               -0.8612260995954535      0.28940551726862224
1040000000               -0.850666626032113       0.3177627670058139
1050000000               -0.839173109420335       0.34573247290963166
1060000000               -0.8267598240659532      0.3732839218658924
1070000000               -0.8134420510824439      0.40038692771843265
1080000000               -0.7992360589446037      0.42701186395290985
1090000000               -0.7841590827690674      0.4531296961629938
1100000000               -0.7682293028859435      0.4787120129906433
1110000000               -0.7514658220069603      0.5037310571711722
1120000000               -0.7338886419560832      0.5281597545380478
1130000000               -0.7155186389033921      0.5519717435440162
1140000000               -0.696377537844043       0.575141403079534
1150000000               -0.6764878864826627      0.5976438793855526
1160000000               -0.6558730279947796      0.6194551122371149
1170000000               -0.6345570730746488      0.6405518600199065
1180000000               -0.6125648710184701      0.6609117241781219
1190000000               -0.589921980377718       0.6805131720496322
1200000000               -0.566654638870931       0.6993355589967399
1210000000               -0.5427897321692099      0.7173591497336536
1220000000               -0.5183547628361435      0.7345651379222544
1230000000               -0.49337781771917816     0.7509356655103386
1240000000               -0.4678875360877089      0.7664538399180398
1250000000               -0.44191307587577544     0.7811037511786525
1260000000               -0.4154840801377942      0.794870487443651
1270000000               -0.38863064330603647     0.80774014914067
1280000000               -0.361383276593838       0.8196998623266492
1290000000               -0.3337728734196282      0.8307377907650354
1300000000               -0.30583067390479174     0.8408431469657881
1310000000               -0.2775882299127756      0.8500062018323489
1320000000               -0.24907736947077164     0.8582182932416944
1330000000               -0.22033016055795684     0.8654718336535695
1340000000               -0.19137887558406297     0.8717603163036142
1350000000               -0.16225595531188103     0.8770783202739433
1360000000               -0.13299397223512557     0.8814215146255049
1370000000               -0.10362559479736362     0.8847866611600695
1380000000               -0.07418355108582056     0.8871716161255624
1390000000               -0.04470059214892146     0.8885753308489213
1400000000               -0.015209456274049772    0.8889978511784696
1410000000               0.014257167952201222     0.8884403158882815
1420000000               0.0436666767934149       0.8869049539177727
1430000000               0.0729865883945676       0.8843950805118326
1440000000               0.10218457880784602      0.8809150923849387
1450000000               0.13122851702493393      0.8764704616668718
1460000000               0.16008650179498662      0.8710677288154088
1470000000               0.18872689738966442      0.8647144943562388
1480000000               0.2171183683566806       0.8574194096476714
1490000000               0.24522991608298758      0.8491921663121573
1500000000               0.27303091429032555      0.8400434844680643
1510000000               0.3004911435046893       0.8299850999843926
1520000000               0.3275808272880255       0.8190297500224658
1530000000               0.35427066736640694      0.8071911572988546
1540000000               0.38053187764750246      0.7944840132452626
1550000000               0.40633621993326197      0.7809239588992498
1560000000               0.43165603743345166      0.7665275646874432
1570000000               0.45646428913613346      0.7513123079691367
1580000000               0.4807345823337073       0.7352965490311474
1590000000               0.5044412048301317       0.7184995051096388
1600000000               0.5275591561948207       0.7009412218966539
1610000000               0.5500641768520923       0.6826425438885559
1620000000               0.5719327756703558       0.6636250823982563
1630000000               0.5931422558498188       0.6439111815485472
1640000000               0.6136707375978834       0.6235238836054179
1650000000               0.6334971783537097       0.602486892639234
1660000000               0.6526013906244454       0.5808245374048587
1670000000               0.6709640558177821       0.5585617345417935
1680000000               0.6885667356071885       0.5357239520007712
1690000000               0.7053918807871075       0.5123371727458272
1700000000               0.7214228362225893       0.4884278615694224
1710000000               0.7366438458029521       0.4640229311839188
1720000000               0.7510400535471391       0.4391497136543797
1730000000               0.7645975057251274       0.41383593139519104
1740000000               0.7773031514728199       0.38810967243675404
1750000000               0.7891448446486437       0.3619993664061856
1760000000               0.8001113460389437       0.33553376331838086
1770000000               0.8101923271216596       0.3087419131379995
1780000000               0.8193783756997782       0.28165314538254077
1790000000               0.8276610026563453       0.25429704974889455
1800000000               0.8350326506012924       0.22670345545919376
1810000000               0.8414867035828358       0.19890240977433116
1820000000               0.8470174979407958       0.17092415449227558
1830000000               0.8516203333955588       0.14279910072549015
1840000000               0.8552914837855717       0.11455780305585905
1850000000               0.8580282079744699       0.08623092931442779
1860000000               0.8598287590812522       0.05784923069975374
1870000000               0.8606923928445629       0.029443508572955992
1880000000               0.8606193740119459       0.0010445811189343796
1890000000               0.8596109811537144       -0.027316751843301946
1900000000               0.8576695092774526       -0.055609744538641426
1910000000               0.854798270549895        -0.08380374216026967
1920000000               0.8510015929630512       -0.11186821676513535
1930000000               0.8462848168100927       -0.13977280469199885
1940000000               0.8406542895511375       -0.16748734244820457
1950000000               0.8341173586313861       -0.19498190278647154
1960000000               0.8266823626089863       -0.22222683111050312
1970000000               0.8183586209417584       -0.24919277885335994
1980000000               0.8091564216391177       -0.27585073989685144
1990000000               0.7990870086044233       -0.302172081999457
2000000000               0.7881625666042589       -0.3281285810405555
2010000000               0.7763962058500319       -0.3536924519479092
2020000000               0.763801944928893        -0.3788363807643933
2030000000               0.7503946935559708       -0.40353355331195595
2040000000               0.7361902328748684       -0.4277576866293167
2050000000               0.7212051968272502       -0.45148305546851636
2060000000               0.7054570507709681       -0.4746845213464207
2070000000               0.6889640706452191       -0.4973375586978905
2080000000               0.6717453208167549       -0.5194182807721649
2090000000               0.6538206308737409       -0.5409034652339119
2100000000               0.6352105726307884       -0.5617705777517585
2110000000               0.6159364352953528       -0.5819977959832324
2120000000               0.5960202010149985       -0.6015640315561545
2130000000               0.5754845191981345       -0.6204489518500473
2140000000               0.5543526806437044       -0.6386330006418126
2.15E9                   0.5326485902638183       -0.656097418295858
2.16E9                   0.5103967405124923       -0.6728242601483126
2.17E9                   0.4876221828068653       -0.6887964152357364
2.18E9                   0.4643505003673239       -0.7039976224358249
2.19E9                   0.44060777845707566      -0.7184124874200483
2.2E9                    0.4164205752995631       -0.7320264977609372
2.21E9                   0.39181589280325096      -0.7448260369390911
2.22E9                   0.366821146264876        -0.7567983977256627
2.23E9                   0.34146413417763033      -0.7679317944867861
2.24E9                   0.3157730068112066       -0.7782153747465559
2.25E9                   0.2897762358998119       -0.7876392291839249
2.26E9                   0.26350258220206746      -0.7961944013887594
2.27E9                   0.2369810652749619       -0.8038728956270709
2.28E9                   0.21024093026763105      -0.8106676845250927
2.29E9                   0.18331161584848932      -0.8165727154592406
2.3E9                    0.1562227233257339       -0.8215829151961963
2.31E9                   0.1290039818651387       -0.8256941947694056
2.32E9                   0.10168521829274849      -0.8289034519796424
2.33E9                   0.07429632268961672      -0.831208573873322
2.34E9                   0.04686721658558142      -0.832608437609099
2.35E9                   0.01942782019732725      -0.8331029102869419
2.36E9                   -0.007991980921112507    -0.8326928479890786
2.37E9                   -0.0353623678817927      -0.8313800934801636
2.38E9                   -0.06265362105873233     -0.8291674728911996
2.39E9                   -0.08983615322781074     -0.8260587914827057
2.4E9                    -0.11688054121189247     -0.8220588281536497
2.41E9                   -0.14375755801966542     -0.8171733289333553
2.42E9                   -0.17043820547834        -0.8114089994699987
2.43E9                   -0.1968937449623315      -0.8047734964027274
2.44E9                   -0.2230957299427937      -0.797275417574812
2.45E9                   -0.24901603546580908     -0.7889242915660515
2.46E9                   -0.2746268901963749      -0.7797305656337695
2.47E9                   -0.29990090677433123     -0.769705592884935
2.48E9                   -0.32481111028631937     -0.7588616186961029
2.49E9                   -0.34933096910238526     -0.7472117656040475
2.5E9                    -0.37343442369899726     -0.7347700171900828
2.51E9                   -0.3970959137443508      -0.7215512017738546
2.52E9                   -0.4202904071686182      -0.7075709739856695
2.53E9                   -0.44299342727235713     -0.692845795777076
2.54E9                   -0.4651810779387655      -0.677392917273133
2.55E9                   -0.4868300706631017      -0.6612303553999004
2.56E9                   -0.5079177494531277      -0.6443768719612373
2.57E9                   -0.5284221138816128      -0.6268519519854883
2.58E9                   -0.5483218435053878      -0.6086757793479808
2.59E9                   -0.5675963203554814      -0.589869212554273
2.6E9                    -0.5862256492113878      -0.5704537604822257
2.61E9                   -0.6041906791906215      -0.5504515556667938
2.62E9                   -0.6214730232098682      -0.5298853277817278
2.63E9                   -0.6380550752219888      -0.5087783774445812
2.64E9                   -0.6539200287780892      -0.48715454740645364
2.65E9                   -0.6690518922289889      -0.46503819512529754
2.66E9                   -0.6834355043461294      -0.44245416341752053
2.67E9                   -0.6970565476936073      -0.41942775206392313
2.68E9                   -0.7099015611986318      -0.39598468849310814
2.69E9                   -0.7219579521729813      -0.3721510978093584
2.7E9                    -0.7332140061300998      -0.34795347376302815
2.71E9                   -0.7436588961457549      -0.32341864919859065
2.72E9                   -0.7532826914767292      -0.2985737658372607
2.73E9                   -0.7620763642487455      -0.27344624534023215
2.74E9                   -0.7700317959876651      -0.24806376002358685
2.75E9                   -0.77714178321108        -0.222454202855896
2.76E9                   -0.7834000417958706      -0.19664565906241416
2.77E9                   -0.7888012109939936      -0.17066637695185688
2.78E9                   -0.7933408566552889      -0.1445447393485677
2.79E9                   -0.7970154739300703      -0.11830923435446497
2.8E9                    -0.7998224893601723      -0.0919884264259282
2.81E9                   -0.8017602620081775      -0.06561092913916902
2.82E9                   -0.8028280848028978      -0.039205374733765334
2.83E9                   -0.8030261845822446      -0.012800386451177892
2.84E9                   -0.8023557219876802      0.013575451525003024
2.85E9                   -0.8008187904153092      0.03989362257557323
2.86E9                   -0.7984184144175498      0.06612570717812288
2.87E9                   -0.7951585471925288      0.09224341369669556
2.88E9                   -0.7910440673501591      0.11821860639308368
2.89E9                   -0.7860807743849316      0.1440233384944491
2.9E9                    -0.780275383598702       0.1696298798752539
2.91E9                   -0.7736355194415234      0.19501074969784818
2.92E9                   -0.7661697080289307      0.22013874581832904
2.93E9                   -0.7578873681066765      0.2449869764708016
2.94E9                   -0.748798801119861       0.26952889007860176
2.95E9                   -0.7389151796405629      0.2937383058561225
2.96E9                   -0.7282485348786104      0.3175894436398797
2.97E9                   -0.7168117425151022      0.34105695407001746
2.98E9                   -0.7046185072529232      0.3641159479794496
2.99E9                   -0.691683346896705       0.38674202355088105
3.0E9                    -0.678021574031398       0.4089112959600567
3.01E9                   -0.6636492776809032      0.43060042339051297
3.02E9                   -0.6485833026884695      0.45178663455356216
3.03E9                   -0.6328412297954714      0.47244775242237086
3.04E9                   -0.6164413522403565      0.4925622213397805
3.05E9                   -0.5994026543194136      0.5121091281775685
3.06E9                   -0.5817447865009259      0.5310682267525938
3.07E9                   -0.5634880416884904      0.5494199583863166
3.08E9                   -0.5446533291892178      0.5671454735284365
3.09E9                   -0.5252621499998145      0.5842266495469957
3.1E9                    -0.5053365685385277      0.6006461113738265
3.11E9                   -0.4848991874259092      0.6163872466025998
3.12E9                   -0.4639731185002778      0.6314342231758874
3.13E9                   -0.4425819558060662      0.6457720035215245
3.14E9                   -0.42074974627013495     0.6593863593734477
3.15E9                   -0.3985009624100599      0.6722638833029655
3.16E9                   -0.37586047221019714     0.6843920014160471
3.17E9                   -0.3528535102379225      0.6957589837801579
3.18E9                   -0.3295056487558681      0.7063539535040003
3.19E9                   -0.3058427681439592      0.7161668952546038
3.2E9                    -0.28189102775778335     0.7251886624626571
3.21E9                   -0.257676835739829       0.7334109838394892
3.22E9                   -0.2332268206653029      0.740826468223506
3.23E9                   -0.20856780098589667     0.7474286092247269
3.24E9                   -0.18372675785892056     0.7532117876969702
3.25E9                   -0.15873080338539688     0.7581712750807107
3.26E9                   -0.1336071545417985      0.7623032337721929
3.27E9                   -0.10838310253017287     0.7656047183821999
3.28E9                   -0.08308598541440732     0.7680736751363378
3.29E9                   -0.057743159928907245    0.7697089407259425
3.3E9                    -0.0323819727732646      0.7705102406722096
3.31E9                   -0.007029733987412534    0.7704781865966708
3.32E9                   0.018286311844428128     0.7696142730670426
3.33E9                   0.04353901093311663      0.7679208734733167
3.34E9                   0.06870132891212251      0.7654012355753199
3.35E9                   0.09374637735969636      0.7620594762488749
3.36E9                   0.11864743988783709      0.7579005755227387
3.37E9                   0.1433779988424103       0.7529303700737939
3.38E9                   0.16791176130270122      0.7471555460839623
3.39E9                   0.19222268602255427      0.7405836314228132
3.4E9                    0.21628500857339272      0.7332229870370787
3.41E9                   0.24007326719172895      0.7250827979614938
3.42E9                   0.26356232923959927      0.7161730632068006
3.43E9                   0.2867274158969577       0.7065045851529528
3.44E9                   0.30954412753084065      0.6960889583569319
3.45E9                   0.33198846954679606      0.684938556866476
3.46E9                   0.3540368762761576       0.6730665216972418
3.47E9                   0.37566623684950895      0.6604867463696638
3.48E9                   0.3968539177323546       0.6472138629439573
3.49E9                   0.4175777881541432       0.6332632257067341
3.5E9                    0.43781624367700955      0.6186508947364753
3.51E9                   0.45754822772403686      0.6033936191508968
3.52E9                   0.4767532556219335       0.5875088181570187
3.53E9                   0.49541143660036263      0.5710145619353495
3.54E9                   0.5135034936489916       0.553929552421204
3.55E9                   0.53101078568476         0.5362731017518277
3.56E9                   0.5479153274022409       0.5180651105610237
3.57E9                   0.5641998070982407       0.49932604659437196
3.58E9                   0.5798476064167251       0.48007692075629405
3.59E9                   0.5948428177115588       0.46033926318788493
3.6E9                    0.609170259426901        0.44013510005830814
3.61E9                   0.6228154929622601       0.419486927456605
3.62E9                   0.6357648373715747       0.39841768588395476
3.63E9                   0.648005381953675        0.3769507354989936
3.64E9                   0.6595250001162164       0.35510982846460704
3.65E9                   0.6703123610594016       0.33291908213489263
3.66E9                   0.6803569394721074       0.3104029532560909
3.67E9                   0.6896490263645974       0.28758620931619533
3.68E9                   0.6981797376083094       0.26449390083402274
3.69E9                   0.7059410208528611       0.24115133504403677
3.7E9                    0.7129256630699793       0.21758404653615326
3.71E9                   0.7191272961878575       0.19381776920565882
3.72E9                   0.7245404011832091       0.16987840974457624
3.73E9                   0.7291603125975318       0.14579201777106093
3.74E9                   0.7329832208581686       0.12158475911041938
3.75E9                   0.7360061745687194       0.09728288676975108
3.76E9                   0.738227081148612        0.07291271384169505
3.77E9                   0.739644707082622        0.04850058580763166
3.78E9                   0.7402586772107533       0.024072852088732603
3.79E9                   0.7400694730117809       -3.4416051459343583E-4
3.8E9                    0.7390784301894571       -0.02472417505054926
3.81E9                   0.7372877355337821       -0.04904099223390758
3.82E9                   0.7347004227857735       -0.07326851638871411
3.83E9                   0.7313203679660454       -0.09738078223835098
3.84E9                   0.7271522839299291       -0.1213519808811969
3.85E9                   0.7222017141435693       -0.1451564863809463
3.86E9                   0.7164750257415975       -0.16876888177384258
3.87E9                   0.709979402067141        -0.19216398285733638
3.88E9                   0.7027228344745915       -0.2153168653819605
3.89E9                   0.6947141133717679       -0.23820288857565808
3.9E9                    0.6859628187654678       -0.26079772095906634
3.91E9                   0.6764793100455982       -0.28307736389920946
3.92E9                   0.6662747153443995       -0.305018175779669
3.93E9                   0.6553609198805024       -0.32659689672342745
3.94E9                   0.6437505539720654       -0.3477906713563444
3.95E9                   0.6314569803051541       -0.3685770724477606
3.96E9                   0.6184942805620175       -0.3889341236979251
3.97E9                   0.6048772410553849       -0.40884032331615816
3.98E9                   0.590621338300723        -0.428274665399554
3.99E9                   0.5757427230813058       -0.4472166631165051
4.0E9                    0.5602582045746781       -0.4656463697042149
