% Model:              cali 3.02 0.91mm.mph
% Version:            COMSOL 5.6.0.280
% Date:               Apr 18 2022, 21:08
% Table:              表格 1 - 全局计算 1
% freq (Hz)              real(emw.S11) (1)        imag(emw.S11) (1)
110000000                0.9032739234179108       -0.42255592179116014
120000000                0.8857118893327787       -0.4580985662563284
130000000                0.8667500862933409       -0.4929060496714168
140000000                0.8464196849756537       -0.5269228543780055
150000000                0.8247540843666393       -0.5600948091074431
160000000                0.8017888525692201       -0.5923691793794132
170000000                0.7775616634732722       -0.6236947558664487
180000000                0.7521122296476964       -0.6540219399835726
190000000                0.7254822320241548       -0.6833028260256206
200000000                0.6977152460997105       -0.7114912803174364
210000000                0.6688566643393717       -0.7385430175839494
220000000                0.638953616558585        -0.7644156727623328
230000000                0.6080548863832853       -0.7890688702593928
240000000                0.5762108253547478       -0.8124642890527419
250000000                0.5434732645362601       -0.8345657239278248
260000000                0.5098954234105814       -0.8553391430115065
270000000                0.4755318169687337       -0.87475274099811
280000000                0.4404381600553599       -0.892776988695394
290000000                0.4046712706880614       -0.9093846778820964
300000000                0.3682889707519797       -0.924550962416242
310000000                0.3313499861633165       -0.9382533945426165
320000000                0.2939138449642922       -0.9504719571968826
330000000                0.2560407747226773       -0.961189091702173
340000000                0.21779159885617788      -0.9703897210802261
350000000                0.1792276325181087       -0.9780612688184468
360000000                0.1404105775160435       -0.9841936732582539
370000000                0.10140241723623529      -0.9887793973839367
380000000                0.06226531158563056      -0.9918134341151398
390000000                0.02306149173081149      -0.9932933071580653
400000000                -0.01614684488316449     -0.9932190673576239
410000000                -0.055297638680435135    -0.9915932845947988
420000000                -0.09432907175523689     -0.9884210353016685
430000000                -0.1331796707027296      -0.983709885604715
440000000                -0.17178840846492138     -0.9774698701498729
450000000                -0.21009480468112401     -0.9697134667205362
460000000                -0.248039024946676       -0.9604555666440912
470000000                -0.2855619782089646      -0.9497134411460678
480000000                -0.3226054126857806      -0.9375067036266147
490000000                -0.3591120094413965      -0.9238572681311084
500000000                -0.3950254742151539      -0.9087893039146078
510000000                -0.4302906268202553      -0.8923291863464811
520000000                -0.4648534881586106      -0.8745054442194109
530000000                -0.498661364674269       -0.8553487035919528
540000000                -0.5316629300689985      -0.8348916283143197
550000000                -0.5638083043576784      -0.8131688572416627
560000000                -0.5950491296204666      -0.7902169385847397
570000000                -0.6253386430643536      -0.7660742610923171
580000000                -0.6546317466437443      -0.7407809826010787
590000000                -0.682885073371411       -0.7143789559869882
600000000                -0.7100570504126763      -0.6869116524886207
610000000                -0.7361079584769152      -0.6584240828960364
620000000                -0.7609999877770675      -0.6289627164626324
630000000                -0.7846972902894518      -0.5985753978635735
640000000                -0.8071660282160761      -0.5673112624333194
650000000                -0.8283744188178672      -0.5352206495621125
660000000                -0.8482927752328939      -0.5023550148356674
670000000                -0.8668935435597134      -0.46876684065916446
680000000                -0.8841513358964724      -0.43450954590908797
690000000                -0.9000429594664093      -0.3996373945559377
700000000                -0.9145474417274019      -0.36420540355007097
710000000                -0.9276460515188103      -0.32826924998085133
720000000                -0.9393223161085982      -0.29188517794652075
730000000                -0.949562034243808       -0.2551099050590609
740000000                -0.9583532851307986      -0.2180005289121318
750000000                -0.9656864333803178      -0.18061443356353749
760000000                -0.9715541298745314      -0.14300919634815507
770000000                -0.9759513085998398      -0.10524249501504823
780000000                -0.9788751794034449      -0.06737201550379808
790000000                -0.9803252166843397      -0.02945536051531828
800000000                -0.9803031440177167      0.008450041167342635
810000000                -0.9788129146537176      0.04628702404673346
820000000                -0.9758606878839946      0.08399877419610426
830000000                -0.9714548011923929      0.12152891599912763
840000000                -0.9656057380997805      0.15882159732037465
850000000                -0.9583260915630073      0.19582157280598894
860000000                -0.949630522718762       0.23247428516730495
870000000                -0.9395357147095709      0.26872594404868816
880000000                -0.928060321148943       0.30452360238141596
890000000                -0.9152249087155255      0.3398152295640837
900000000                -0.9010518930593595      0.3745497811250314
910000000                -0.8855654669391821      0.40867726406736804
920000000                -0.868791519084045       0.44214879683050656
930000000                -0.8507575416070765      0.4749166624297012
940000000                -0.8314925229519698      0.5069343524576546
950000000                -0.8110268220768942      0.538156598413122
960000000                -0.7893920176122642      0.5685393849475472
970000000                -0.7666207230923208      0.5980399359826684
980000000                -0.742746355181272       0.6266166590027624
990000000                -0.7178028358433217      0.6542290224779129
1000000000               -0.6918242008139361      0.6808373227116414
1010000000               -0.664844074912837       0.7064022618091548
1020000000               -0.6368949608475156      0.7308841920207743
1030000000               -0.6080072797513526      0.7542417503125617
1040000000               -0.5782081295418969      0.7764293395802692
1050000000               -0.547519901378691       0.7973923572516566
1060000000               -0.5159595992340084      0.817057917716989
1070000000               -0.48354226906609554     0.8353165750633154
1080000000               -0.4503008342190145      0.8519875101073361
1090000000               -0.416362926471082       0.8667648611905682
1100000000               -0.38218769163575345     0.8792178644954869
1110000000               -0.34897370068792055     0.8892584658436711
1120000000               -0.31801442490548787     0.8985153393076173
1130000000               -0.287843920536297       0.9094268944479311
1140000000               -0.25574799608159177     0.9212308738699214
1150000000               -0.22155561288271886     0.9319030507839656
1160000000               -0.18617524417780196     0.940706985171005
1170000000               -0.1502254385765312      0.9476442566799794
1180000000               -0.1140084767707183      0.9528545412704488
1190000000               -0.07767462726333126     0.956455825384312
1200000000               -0.04131174825132398     0.9585291537877061
1210000000               -0.0049828364234400626   0.9591289901734514
1220000000               0.03125900289371444      0.9582934031887369
1230000000               0.06736459456088362      0.9560508854830951
1240000000               0.10328632526434928      0.952424557432831
1250000000               0.13897723628705877      0.947434721649171
1260000000               0.17439072104248848      0.9411004269229896
1270000000               0.20948047367965064      0.9334404391871584
1280000000               0.2442005393968655       0.9244738526546779
1290000000               0.27850540217465874      0.9142204782050357
1300000000               0.31235008257855823      0.9027010906832835
1310000000               0.34569023415600386      0.8899375847345941
1320000000               0.37848223407511433      0.8759530699267395
1330000000               0.4106832666801383       0.8607719246360406
1340000000               0.44225139995190194      0.8444198212657629
1350000000               0.47314565525724517      0.8269237311067745
1360000000               0.5033260710121089       0.8083119143670272
1370000000               0.5327537606566839       0.7886138992288747
1380000000               0.5613909654335719       0.7678604525419118
1390000000               0.5892011021657843       0.7460835440874383
1400000000               0.616148806260641        0.723316305738607
1410000000               0.6421999699017409       0.6995929865805388
1420000000               0.6673217753405606       0.6749489047692493
1430000000               0.6914827230237877       0.6494203967772345
1440000000               0.7146526540870504       0.6230447646331577
1450000000               0.7368027665806555       0.5958602217100691
1460000000               0.7579056244821175       0.5679058377280767
1470000000               0.7779351581785072       0.5392214838275934
1480000000               0.7968666546498199       0.5098477788878272
1490000000               0.8146767349534486       0.47982603881507474
1500000000               0.8313433157126003       0.4491982315697911
1510000000               0.8468455502844123       0.41800694219140083
1520000000               0.8611637438476422       0.3862953548123519
1530000000               0.874279235114744        0.3541072629712718
1540000000               0.8861742358707915       0.32148712692566994
1550000000               0.8968316191594448       0.2884802089112767
1560000000               0.9062346500969671       0.25513283755505917
1570000000               0.9143666658464547       0.2214928860649018
1580000000               0.9212107470857049       0.18761060084591108
1590000000               0.9267495123521095       0.153539991594103
1600000000               0.9309653711101906       0.11934107557768547
1610000000               0.9338420034391135       0.08508327287576027
1620000000               0.9353686329516088       0.05084988854352906
1630000000               0.9355497422341795       0.0167421404484168
1640000000               0.9344229644323119       -0.01712271612719131
1650000000               0.932082452436151        -0.05063100636164049
1660000000               0.9286873711460537       -0.08372199597031892
1670000000               0.9244157309022953       -0.11644955872106287
1680000000               0.9193573055849339       -0.14898382448652017
1690000000               0.9134399984315735       -0.18150361953967734
1700000000               0.9064853120822527       -0.21407219350530335
1710000000               0.8983284565047314       -0.24662015442936358
1720000000               0.8888824042443559       -0.27901352197224377
1730000000               0.8781305717689545       -0.31111719415237
1740000000               0.8660959270255557       -0.3428205614099176
1750000000               0.8528170068196946       -0.37403843058642655
1760000000               0.8383356524428636       -0.40470410415061775
1770000000               0.822692392236219        -0.43476249564841574
1780000000               0.8059254909032376       -0.4641652443736717
1790000000               0.788071436748902        -0.49286766120030934
1800000000               0.7691658784876876       -0.5208269331660778
1810000000               0.7492446498624088       -0.5480011217181453
1820000000               0.728344788480932        -0.5743486710155341
1830000000               0.7065055510890197       -0.5998282909648006
1840000000               0.683769443359304        -0.6243991864937776
1850000000               0.6601832536013053       -0.6480216807954907
1860000000               0.6357990156605855       -0.6706583291482716
1870000000               0.6106747252979425       -0.6922756317852032
1880000000               0.5848745026955975       -0.7128464009760753
1890000000               0.5584677614862559       -0.7323526796878379
1900000000               0.5315268879332526       -0.7507888156348139
1910000000               0.5041230790449641       -0.7681638910991807
1920000000               0.47632046637719655      -0.7845023435158005
1930000000               0.4481694724636729       -0.7998415780180336
1940000000               0.4197012330703041       -0.814225990810355
1950000000               0.3909252922301013       -0.8276981327278332
1960000000               0.36183208386468757      -0.8402892258735497
1970000000               0.3323999952355548       -0.8520119645447203
1980000000               0.30260493360162966      -0.8628578325156367
1990000000               0.2724294310039252       -0.872799352838346
2000000000               0.2418688938052414       -0.8817958521664363
2010000000               0.21093409381136238      -0.8898004595457695
2020000000               0.17965042812595178      -0.89676634829289
2030000000               0.14805521058111015      -0.9026511467348346
2040000000               0.1161942699745902       -0.9074193497487472
2050000000               0.08411874495790689      -0.9110431142799428
2060000000               0.05188251472443781      -0.9135020001622087
2070000000               0.01954036852504082      -0.9147821611024528
2080000000               -0.012853167705189072    -0.9148753446192459
2090000000               -0.04524449798630173     -0.9137779140108893
2100000000               -0.07758126774083927     -0.9114899961937919
2110000000               -0.10981244424775305     -0.9080147906893011
2120000000               -0.14188825627379273     -0.9033580383802463
2130000000               -0.17376005313752324     -0.8975276329920412
2140000000               -0.20538012041195391     -0.8905333548798396
2.15E9                   -0.23670147381454348     -0.882386709788732
2.16E9                   -0.26767764312455444     -0.8731008614692108
2.17E9                   -0.29826245312240246     -0.8626906547009519
2.18E9                   -0.3284098084348326      -0.8511727334849035
2.19E9                   -0.3580734930805271      -0.8385657676717623
2.2E9                    -0.3872070053962321      -0.824890809102512
2.21E9                   -0.41576346568170053     -0.810171804094538
2.22E9                   -0.4436956601986197      -0.794436289022594
2.23E9                   -0.47095632219678196     -0.7777162832813698
2.24E9                   -0.49749879750063486     -0.7600493573195817
2.25E9                   -0.523278288981142       -0.7414797761294263
2.26E9                   -0.5482538950592185      -0.7220594818022829
2.27E9                   -0.5723915986618637      -0.7018484757601364
2.28E9                   -0.5956681429688929      -0.6809139266309995
2.29E9                   -0.6180752666804121      -0.6593271867909898
2.3E9                    -0.6396230771256346      -0.637158089591388
2.31E9                   -0.6603406742560236      -0.6144667033598613
2.32E9                   -0.6802720960762368      -0.5912941828594848
2.33E9                   -0.6994668968235074      -0.5676558966758817
2.34E9                   -0.717967179970391       -0.5435403692285582
2.35E9                   -0.7357953727243048      -0.5189157357555273
2.36E9                   -0.7529474472280594      -0.49374193257918747
2.37E9                   -0.7693938782767494      -0.4679840057752198
2.38E9                   -0.7850869224254251      -0.4416217850657301
2.39E9                   -0.7999703614796659      -0.4146536104914395
2.4E9                    -0.8139879126927355      -0.3870948271849266
2.41E9                   -0.8270883215605093      -0.35897352044254244
2.42E9                   -0.8392271770667249      -0.3303259894337996
2.43E9                   -0.8503666707307783      -0.30119341389358134
2.44E9                   -0.8604746642312922      -0.27161997652412334
2.45E9                   -0.8695239191449451      -0.24165197357359466
2.46E9                   -0.8774917153680566      -0.21133730763719694
2.47E9                   -0.8843597032228478      -0.18072498680031948
2.48E9                   -0.8901137609195318      -0.1498645430992404
2.49E9                   -0.8947437302348811      -0.1188054479126125
2.5E9                    -0.8982430249676178      -0.08759662715919109
2.51E9                   -0.9006081733158825      -0.05628613243260421
2.52E9                   -0.9018383647173382      -0.024920969648082172
2.53E9                   -0.9019350510294842      0.006452946526827344
2.54E9                   -0.9009016255131699      0.03779075431113574
2.55E9                   -0.8987431829129016      0.06904856018519158
2.56E9                   -0.8954663525292728      0.10018333619316616
2.57E9                   -0.8910791917083375      0.13115281740158644
2.58E9                   -0.8855911269289113      0.16191541013769598
2.59E9                   -0.8790129313930719      0.19243011649939126
2.6E9                    -0.8713567303929143      0.22265647748281922
2.61E9                   -0.8626360279511728      0.2525545356099055
2.62E9                   -0.8528657500136154      0.2820848175166226
2.63E9                   -0.8420623007164727      0.31120833704984663
2.64E9                   -0.8302436289290942      0.3398866199622876
2.65E9                   -0.8174293024126013      0.3680817519652914
2.66E9                   -0.8036405865804426      0.39575645253069275
2.67E9                   -0.7889005239896291      0.42287417734086125
2.68E9                   -0.7732340093758517      0.4493992525039685
2.69E9                   -0.7566678533583461      0.47529704332607353
2.7E9                    -0.7392308259703925      0.500534159438514
2.71E9                   -0.7209536690998027      0.5250786962587598
2.72E9                   -0.7018690652365458      0.5489005097115559
2.73E9                   -0.682011548883644       0.5719715171164
2.74E9                   -0.6614173473505852      0.5942660120667046
2.75E9                   -0.6401241399520186      0.6157609754951615
2.76E9                   -0.6181707293942202      0.636436359750284
2.77E9                   -0.5955966263771519      0.6562753186287829
2.78E9                   -0.5724415578704709      0.6752643550314584
2.79E9                   -0.5487449195719462      0.6933933606896631
2.8E9                    -0.5245452020651168      0.7106555293134793
2.81E9                   -0.49987942561745125     0.7270471350478913
2.82E9                   -0.47478261887618567     0.7425671798817298
2.83E9                   -0.449287371892111       0.7572169234036236
2.84E9                   -0.4234234861052348      0.7709993131470048
2.85E9                   -0.3972177376890993      0.7839183326161372
2.86E9                   -0.3706937704821653      0.7959782798118628
2.87E9                   -0.3438721429149997      0.8071829878990768
2.88E9                   -0.31677056594003866     0.8175350095114621
2.89E9                   -0.28940437636974653     0.8270348110472501
2.9E9                    -0.26178727906714494     0.835680059024006
2.91E9                   -0.23393235385731492     0.8434651125284376
2.92E9                   -0.2058532623476043      0.8503808443799161
2.93E9                   -0.17756552424236904     0.8564148841184708
2.94E9                   -0.14908768826038338     0.8615523090429698
2.95E9                   -0.12044221994946103     0.865776723968263
2.96E9                   -0.09165597200535824     0.869071594465845
2.97E9                   -0.06276017648596728     0.8714216563412411
2.98E9                   -0.0337899780243248      0.8728142243705141
2.99E9                   -0.004783589425297308    0.873240257656124
3.0E9                    0.024218814725350948     0.8726950893070846
3.01E9                   0.05317634239424312      0.871178777117049
3.02E9                   0.08204864987121888      0.8686960696522906
3.03E9                   0.11079712480197319      0.8652560077671754
3.04E9                   0.13938589267708767      0.8608712003877129
3.05E9                   0.16778256113612677      0.8555568323703832
3.06E9                   0.19595862695041327      0.8493294857381936
3.07E9                   0.2238894906150266       0.8422058826994022
3.08E9                   0.2515540584168111       0.834201682957989
3.09E9                   0.2789339617461419       0.8253304784981111
3.1E9                    0.30601248038548157      0.8156031165778131
3.11E9                   0.33277330773541963      0.8050274415484016
3.12E9                   0.35919932523430076      0.7936084833335185
3.13E9                   0.3852715505631917       0.7813490484685942
3.14E9                   0.4109683882046309       0.7682506067510627
3.15E9                   0.43626525111001246      0.7543143286034425
3.16E9                   0.4611345549862577       0.7395421228462282
3.17E9                   0.48554602925632795      0.7239375488347792
3.18E9                   0.5094672523806777       0.7075065203025586
3.19E9                   0.5328643078478967       0.6902577668585567
3.2E9                    0.5557024667290049       0.6722030612940204
3.21E9                   0.5779468255352812       0.6533572496296141
3.22E9                   0.5995628553578503       0.6337381347736234
3.23E9                   0.6205168434377601       0.6133662658879157
3.24E9                   0.6407762273433794       0.5922646785073431
3.25E9                   0.6603098337187885       0.5704586195564728
3.26E9                   0.6790880391310378       0.5479752799459942
3.27E9                   0.6970828713180272       0.5248435478354734
3.28E9                   0.7142680673790278       0.501093788464469
3.29E9                   0.7306191025162179       0.4767576517965165
3.3E9                    0.7461131998799001       0.45186790659189163
3.31E9                   0.7607293294935403       0.4264582981704179
3.32E9                   0.7744482022254637       0.40056342647503596
3.33E9                   0.7872522632045844       0.3742186409069575
3.34E9                   0.7991256879440503       0.34745994822825355
3.35E9                   0.8100543834685173       0.32032392979034907
3.36E9                   0.8200259958778248       0.2928476643069438
3.37E9                   0.829029924968971        0.265068652324966
3.38E9                   0.8370573456801985       0.23702473860558562
3.39E9                   0.8441012352465969       0.20875402871513118
3.4E9                    0.8501564040303983       0.18029479636816287
3.41E9                   0.8552195270084408       0.1516853785329109
3.42E9                   0.8592891719387986       0.12296405597328652
3.43E9                   0.8623658193298983       0.09416891783368242
3.44E9                   0.8644518685590374       0.06533771030674031
3.45E9                   0.8655516240716938       0.03650767096630652
3.46E9                   0.86567125557477         0.007715352395653759
3.47E9                   0.8648187267846641       -0.021003559129431026
3.48E9                   0.8630036886884895       -0.0496144220185315
3.49E9                   0.8602373355173057       -0.07808380513179185
3.5E9                    0.8565322246292422       -0.10637963014606092
3.51E9                   0.8519020650687072       -0.13447127959949803
3.52E9                   0.8463614832888148       -0.16232966094551005
3.53E9                   0.8399257778729411       -0.18992721954662578
3.54E9                   0.8326106775051691       -0.21723789737502344
3.55E9                   0.8244321173598806       -0.24423703896990812
3.56E9                   0.8154060482329322       -0.27090125113249935
3.57E9                   0.8055482900712598       -0.29720822728641266
3.58E9                   0.7948744374259985       -0.32313655063095503
3.59E9                   0.783399819313745        -0.3486654917520484
3.6E9                    0.7711395108915053       -0.3737748158209355
3.61E9                   0.7581083898433928       -0.3984446124181785
3.62E9                   0.7443212271705563       -0.4226551574798818
3.63E9                   0.7297928004380225       -0.4463868126876669
3.64E9                   0.7145380174471758       -0.46961996351635565
3.65E9                   0.6985720396563124       -0.4923349934917342
3.66E9                   0.6819103969076242       -0.5145122896452249
3.67E9                   0.6645690877760515       -0.5361322726373235
3.68E9                   0.6465646626172383       -0.5571754446503554
3.69E9                   0.6279142887137127       -0.5776224487688125
3.7E9                    0.6086357986680437       -0.5974541347407681
3.71E9                   0.5887477241319289       -0.6166516275587065
3.72E9                   0.5682693171495269       -0.635196396822201
3.73E9                   0.547220561086227        -0.6530703259911035
3.74E9                   0.5256221722886053       -0.6702557814519109
3.75E9                   0.5034955927752746       -0.6867356814958478
3.76E9                   0.480862973497929        -0.7024935650147164
3.77E9                   0.45774714724258825      -0.7175136590711315
3.78E9                   0.4341715902076517       -0.7317809436466249
3.79E9                   0.41016037176909725      -0.7452812110076871
3.8E9                    0.38573809272112936      -0.7580011165595544
3.81E9                   0.3609298135958852       -0.7699282177227922
3.82E9                   0.33576097575229763      -0.7810509977268311
3.83E9                   0.3102573193583467       -0.7913588718676089
3.84E9                   0.28444480319638643      -0.8008421750931245
3.85E9                   0.258349531778444        -0.8094921313660397
3.86E9                   0.23199769519838256      -0.8173008070338309
3.87E9                   0.20541552641948596      -0.8242610522153035
3.88E9                   0.17862927934969852      -0.8303664357097326
3.89E9                   0.1516652293182711       -0.8356111799333473
3.9E9                    0.12454969539975363      -0.8399901027725454
3.91E9                   0.09730908187329189      -0.8434985728859182
3.92E9                   0.06996993415132789      -0.8461324839122111
3.93E9                   0.04255900298249529      -0.847888251369872
3.94E9                   0.01510330989033708      -0.8487628339587792
3.95E9                   -0.012369793389691708    -0.8487537787439993
3.96E9                   -0.03983257813634555     -0.8478592875757676
3.97E9                   -0.06725690994892641     -0.8460783003206921
3.98E9                   -0.0946142419779255      -0.8434105892129478
3.99E9                   -0.12187563201681542     -0.8398568579758307
4.0E9                    -0.14901178351373864     -0.835418839318546
