% Model:              three_layers reality at 0.1mm.mph
% Version:            COMSOL 5.6.0.280
% Date:               Mar 10 2022, 21:05
% Table:              表格 1 - 全局计算 1
% freq (Hz)              real(emw.S11) (1)        imag(emw.S11) (1)
300000000                0.4191432052306716       -0.8015807530066965
330000000                0.33179139394633134      -0.8387407646072567
360000000                0.24140592971717148      -0.8665986859972601
390000000                0.14893751798727503      -0.8849132408561449
420000000                0.055362386830002386     -0.8935400199106488
450000000                -0.03832950118916241     -0.8924346779062375
480000000                -0.13114612015265445     -0.8816545073638363
510000000                -0.2221048758249392      -0.8613585313613792
540000000                -0.31024384383304837     -0.8318062199742586
570000000                -0.3946326576237212      -0.7933549162225745
600000000                -0.47438294706920403     -0.746456049927425
630000000                -0.5486582265873859      -0.6916502174826253
660000000                -0.6166831336082919      -0.6295612088791345
690000000                -0.6777519219956322      -0.5608890695174144
720000000                -0.7312361223158734      -0.4864022905322659
750000000                -0.7765912882980945      -0.4069292290639763
780000000                -0.8133627592040379      -0.32334886622629905
810000000                -0.8411903785195879      -0.23658101684573465
840000000                -0.8598121215965797      -0.14757610996426704
870000000                -0.8690665976486802      -0.05730466282057849
900000000                -0.8688944047824171      0.03325342626881415
930000000                -0.8593383304813131      0.12311964013632155
960000000                -0.8405424036503982      0.21132753415428698
990000000                -0.812749817957513       0.2969332336660064
1020000000               -0.776299759460715       0.37902561715681565
1050000000               -0.731623184212594       0.45673607065861754
1080000000               -0.6792376035723947      0.5292477048862483
1110000000               -0.6197409459506128      0.5958039346820198
1140000000               -0.5538045739163804      0.6557163289204985
1170000000               -0.4821655443177337      0.7083716492488861
1200000000               -0.4056182068196121      0.753238006491454
1230000000               -0.32500524251681634     0.7898700750464895
1260000000               -0.24120824909876878     0.8179133175268043
1290000000               -0.15513798268053894     0.8371071839323101
1320000000               -0.06772436837336696     0.8472872621075264
1350000000               0.020093607606261624     0.848386368451918
1380000000               0.10737801216885696      0.8404345799891193
1410000000               0.1932019756599365       0.8235582206543031
1440000000               0.2766594912789088       0.7979778259957273
1470000000               0.35687490077727696      0.7640051211940468
1500000000               0.4330119690313309       0.7220390573470837
1530000000               0.5042824561078428       0.6725609603007118
1560000000               0.5699541027634293       0.616128854646423
1590000000               0.6293579527581216       0.5533710331716631
1620000000               0.6818949438378233       0.4849789486359667
1650000000               0.7270417081351855       0.4116995103333566
1680000000               0.7643555317278292       0.33432687283660323
1710000000               0.7934784329349477       0.25369380770181027
1740000000               0.8141403284339763       0.1706627519801862
1770000000               0.8261612664024117       0.08611662885139625
1800000000               0.8294527158200723       9.495365835943657E-4
1830000000               0.8240179112453764       -0.0839425984578086
1860000000               0.8099512624368143       -0.16767131039704977
1890000000               0.7874368482752658       -0.2493647325140095
1920000000               0.7567460243651895       -0.3281764985160111
1950000000               0.718234183225394        -0.40329432513988883
1980000000               0.6723367148447207       -0.4739482028151968
2010000000               0.6195642226653973       -0.5394181323085474
2040000000               0.5604970543370505       -0.5990413598291376
2070000000               0.49577920516346946      -0.6522190814220784
2100000000               0.426111640465469        -0.698422608837534
2130000000               0.3522450547812101       -0.7371990088596813
2.16E9                   0.2749720329825678       -0.7681762355157844
2.19E9                   0.19511849843968251      -0.7910677457102635
2.22E9                   0.11353424105184794      -0.8056764853312679
2.25E9                   0.031082272901198495     -0.8118979111831868
2.28E9                   -0.05137311040642772     -0.8097213733798946
2.31E9                   -0.13297920682242098     -0.7992288624313384
2.34E9                   -0.21290749168594092     -0.7805901944666473
2.37E9                   -0.2903637871563793      -0.7540546336479397
2.4E9                    -0.3645939241143177      -0.71994072787704
2.43E9                   -0.43488453135960425     -0.678627661822399
2.46E9                   -0.5005613385962081      -0.63055102371196
2.49E9                   -0.5609889315834207      -0.5762032022404495
2.52E9                   -0.6155747004652667      -0.5161356932663058
2.55E9                   -0.6637768484370823      -0.4509597874088682
2.58E9                   -0.7051142147712071      -0.3813436080098046
2.61E9                   -0.739175467022729       -0.30800554252926926
2.64E9                   -0.7656262461295554      -0.23170528976848362
2.67E9                   -0.784213952097004       -0.15323384948399618
2.7E9                    -0.794770473178037       -0.073403354873275
2.73E9                   -0.7972133171194191      0.006962811703416474
2.76E9                   -0.7915455263628628      0.08703947567067222
2.79E9                   -0.7778546267998         0.166008689355033
2.82E9                   -0.7563107516497998      0.24306833752341275
2.85E9                   -0.7271640153436606      0.3174403440027341
2.88E9                   -0.6907411793607807      0.38837847241733586
2.91E9                   -0.6474416405077805      0.45517569403232017
2.94E9                   -0.5977327724230654      0.5171710816752739
2.97E9                   -0.5421446569972357      0.5737561808841878
3.0E9                    -0.4812642505036735      0.6243808066119411
3.03E9                   -0.41572903761963453     0.6685582150262575
3.06E9                   -0.34622023438401134     0.7058696039149767
3.09E9                   -0.2734556078355803      0.73596790147079
3.12E9                   -0.19818198517870833     0.7585808111083215
3.15E9                   -0.12116752862794958     0.7735130888568751
3.18E9                   -0.04319385313101823     0.7806480391755118
3.21E9                   0.0349519369392727       0.7799482238524311
3.24E9                   0.1124852189438883       0.7714553860435385
3.27E9                   0.18863176197933385      0.7552895967722805
3.3E9                    0.26263551050703654      0.731647633812758
3.33E9                   0.3337661787512639       0.7008006031642381
3.36E9                   0.4013265923039658       0.6630908122319357
3.39E9                   0.4646597088211243       0.618927903050558
3.42E9                   0.5231552411441508       0.5687842557185623
3.45E9                   0.5762557946443423       0.5131896790227986
3.48E9                   0.6234624183191066       0.45272541925574955
3.51E9                   0.6643394597810751       0.38801754073195127
3.54E9                   0.6985186125588669       0.3197297617283712
3.57E9                   0.7257020544726047       0.2485558643396659
3.6E9                    0.7456646011886825       0.17521182966816473
3.63E9                   0.7582548380884497       0.10042787363382616
3.66E9                   0.7633952411023011       0.02494056685534544
3.69E9                   0.7610813446245906       -0.050514786927514134
3.72E9                   0.7513800551820009       -0.12521136255729293
3.75E9                   0.7344272405784701       -0.1984374951109346
3.78E9                   0.7104247482799952       -0.26950274705796984
3.81E9                   0.6796370261942344       -0.3377433191920835
3.84E9                   0.6423875297719803       -0.4025268190686448
3.87E9                   0.5990550889723197       -0.46325646992073494
3.9E9                    0.5500703622888773       -0.5193749144418333
3.93E9                   0.4959124181075083       -0.5703678166596408
3.96E9                   0.43710537118409154      -0.6157674643871857
3.99E9                   0.3742148974332793       -0.6551565112238271
4.02E9                   0.3078443909810954       -0.688171882552945
4.05E9                   0.2386305368741981       -0.7145087383685151
4.08E9                   0.1672381487905879       -0.7339242783908855
4.11E9                   0.09435423769217054      -0.7462411226775185
4.14E9                   0.020681398278000175     -0.7513500130850415
4.17E9                   -0.05306930718444552     -0.7492116457058162
4.2E9                    -0.12618574207973535     -0.7398575367930449
4.23E9                   -0.19796214296348183     -0.7233899169772747
4.26E9                   -0.2677064392473061      -0.6999807184852261
4.29E9                   -0.3347473219554101      -0.6698697555369706
4.32E9                   -0.39844099544904277     -0.6333621989343784
4.35E9                   -0.4581775849517425      -0.5908254219969207
4.38E9                   -0.513387186303373       -0.5426852621589914
4.41E9                   -0.5635455356398454      -0.48942171579786004
4.44E9                   -0.6081792550056785      -0.431564072843834
4.47E9                   -0.6468706070114109      -0.36968550435298286
4.5E9                    -0.6792616763814602      -0.30439713652281447
4.53E9                   -0.7050578932763584      -0.23634167183299107
4.56E9                   -0.7240308232783336      -0.16618664555863163
4.59E9                   -0.7360201704821162      -0.09461742840422743
4.62E9                   -0.7409349704024996      -0.02233009908035381
4.65E9                   -0.7387539840703197      0.049975689509298454
4.68E9                   -0.7295253370088869      0.12160374253958924
4.71E9                   -0.7133654680001602      0.1918681754573352
4.74E9                   -0.6904574550492446      0.2601000432636659
4.77E9                   -0.661048767639205       0.32565373342165754
4.8E9                    -0.6254484621847589      0.3879131193384685
4.83E9                   -0.5840238062488785      0.446297456824295
4.86E9                   -0.5371963024481213      0.5002669714637867
4.89E9                   -0.4854370945188604      0.5493280445301325
4.92E9                   -0.42926177440239865     0.5930378756313203
4.95E9                   -0.36922466012149563     0.6310084936520983
4.98E9                   -0.3059126654710356      0.662910007824797
5.01E9                   -0.23993892112334525     0.6884730345280057
5.04E9                   -0.17193632286297103     0.7074902946322656
5.07E9                   -0.10255117033340184     0.7198174395265466
5.1E9                    -0.03243701773262373     0.7253732171009555
5.13E9                   0.0377512077094206       0.7241391161665027
5.16E9                   0.10736283658619038      0.7161586160059457
5.19E9                   0.17575690989874887      0.701536115020084
5.22E9                   0.24230753822842052      0.6804355348046409
5.25E9                   0.3064092111215125       0.6530785263036036
5.28E9                   0.36748202091835636      0.619742178657901
5.31E9                   0.4249766859158971       0.5807561663100785
5.34E9                   0.47837922079930806      0.5364993511413604
5.37E9                   0.5272151278826378       0.4873959435107783
5.4E9                    0.5710530581101548       0.43391137625110937
5.43E9                   0.6095079788362142       0.3765480377394381
5.46E9                   0.6422439476713007       0.31584095245691357
5.49E9                   0.6689766067326819       0.25235341842467846
5.52E9                   0.6894754806225308       0.18667254141566741
5.55E9                   0.7035661005982796       0.11940456652846188
5.58E9                   0.7111319072889771       0.051169905493176016
5.61E9                   0.7121158223548338       -0.017402209942785418
5.64E9                   0.7065213384049042       -0.0856794595401361
5.67E9                   0.6944129663224068       -0.15303248661442895
5.7E9                    0.6759159079880682       -0.21884112875688855
5.73E9                   0.6512148918225574       -0.2825006275641206
5.76E9                   0.6205522052402981       -0.3434276043316644
5.79E9                   0.58422504997669         -0.4010656341631671
5.82E9                   0.542582393819225        -0.45489034311327514
5.85E9                   0.49602147292157234      -0.5044140519382777
5.88E9                   0.4449840253162851       -0.5491900492465869
5.91E9                   0.3899522501176071       -0.5888165731404518
5.94E9                   0.3314444311535958       -0.6229405262365213
5.97E9                   0.27001015748315177      -0.6512608791968364
6.0E9                    0.20622510771565994      -0.6735316647298921
