% Model:              three_layers reality at 0.1mm.mph
% Version:            COMSOL 5.6.0.280
% Date:               Mar 10 2022, 21:03
% Table:              表格 1 - 全局计算 1
% freq (Hz)              real(emw.S11) (1)        imag(emw.S11) (1)
300000000                0.41819777680505904      -0.8009731461506304
330000000                0.3309119982955389       -0.8379565118610581
360000000                0.2406257394236958       -0.8656500994042571
390000000                0.1482860369867238       -0.8838180269969453
420000000                0.0548649404559578       -0.8923203040062996
450000000                -0.03865212095854709     -0.8911160873767646
480000000                -0.13127788296336326     -0.8802653077489438
510000000                -0.22203463355310663     -0.8599288097407665
540000000                -0.3099653563942491      -0.8303671133114499
570000000                -0.3941445336240956      -0.7919378841496972
600000000                -0.47368850695800707     -0.7450921930406659
630000000                -0.5477652947477671      -0.6903696435431033
660000000                -0.6156037659898991      -0.6283924498933081
690000000                -0.6765020757256481      -0.559858552969709
720000000                -0.7298352738171601      -0.48553386829423195
750000000                -0.775062006894389       -0.4062437672408761
780000000                -0.8117302435723398      -0.32286389865055853
810000000                -0.8394819635209587      -0.23631046465309824
840000000                -0.8580567633887585      -0.1475300685989722
870000000                -0.86729434493692        -0.0574892576514087
900000000                -0.8671358643293026      0.03283611602395707
930000000                -0.8576241347672208      0.12247158985063089
960000000                -0.8389026884671001      0.2104547163284478
990000000                -0.8112137174012152      0.2958454971463139
1020000000               -0.7748949254210086      0.3777365062996112
1050000000               -0.7303753369295821      0.4552625886392616
1080000000               -0.6781701192627558      0.5276100259037624
1110000000               -0.6188744868580985      0.594025070448647
1140000000               -0.5531567653620807      0.6538217554402245
1170000000               -0.48175070261402997     0.7063889001639563
1200000000               -0.4054471210198474      0.7511962397374083
1230000000               -0.325085012174833       0.7877996197015539
1260000000               -0.24154217938252504     0.8158452078546434
1290000000               -0.1557255372408548      0.8350726876836294
1320000000               -0.06856117963845386     0.8453174099967765
1350000000               0.019015671920663738     0.846511491565618
1380000000               0.10607072820601236      0.8386838615954283
1410000000               0.19168059097579918      0.8219592685354673
1440000000               0.27494250398134046      0.796556270979544
1470000000               0.35498379427063365      0.7627842470577212
1500000000               0.43097090664711984      0.7210394667373246
1530000000               0.5021179406051693       0.6718002806501715
1560000000               0.5676946057581066       0.6156214875327186
1590000000               0.6270335196845362       0.5531279497816397
1620000000               0.6795367801060682       0.48500753338164737
1650000000               0.7246817522329625       0.4120034540181375
1680000000               0.7620260212020153       0.3349061159372573
1710000000               0.7912114689956582       0.2545445337971788
1740000000               0.8119674448861816       0.1717774305908897
1770000000               0.8241130083796975       0.08748410636152355
1800000000               0.8275582335397808       0.00255517320898053
1830000000               0.8223045736162661       -0.08211674815790174
1860000000               0.8084442949226851       -0.1656462766721577
1890000000               0.7861589988772018       -0.2471643727481504
1920000000               0.7557172609191174       -0.3258272068679555
1950000000               0.7174714244693278       -0.4008247137558758
1980000000               0.6718535967882844       -0.47138875912904654
2010000000               0.6193709007559183       -0.536800856805524
2040000000               0.5606000407546289       -0.5963993881485802
2070000000               0.49618123937389386      -0.6495862936325683
2100000000               0.4268115902312346       -0.6958332267208418
2130000000               0.35323784456209584      -0.7346871790650544
2.16E9                   0.2762485981743854       -0.7657755921518663
2.19E9                   0.19666576864863572      -0.7888109410509092
2.22E9                   0.11533516550263966      -0.8035946737900931
2.25E9                   0.03311591690503431      -0.8100201741741195
2.28E9                   -0.04913135000351048     -0.8080740881022044
2.31E9                   -0.13055720833033338     -0.7978350523684556
2.34E9                   -0.21033579522317913     -0.7794689492508109
2.37E9                   -0.2876747804076047      -0.7532207250824684
2.4E9                    -0.36182094051163116     -0.7194045337658914
2.43E9                   -0.43206104424932507     -0.6783954155478557
2.46E9                   -0.49772041422934443     -0.630625275259758
2.49E9                   -0.5581629867724603      -0.5765832968828684
2.52E9                   -0.6127954763757919      -0.5168181050089512
2.55E9                   -0.6610754489221853      -0.45193825151469796
2.58E9                   -0.7025210842997478      -0.38260909768823703
2.61E9                   -0.7367202526960027      -0.309546178357055
2.64E9                   -0.7633375486531577      -0.23350626130867014
2.67E9                   -0.7821190007937272      -0.1552773971477203
2.7E9                    -0.7928947650973295      -0.07566883039542498
2.73E9                   -0.7955802529038427      0.0044988069521644915
2.76E9                   -0.7901760651375126      0.08440288416187232
2.79E9                   -0.7767669736536326      0.16322773502576848
2.82E9                   -0.7555200851999914      0.24017321933090852
2.85E9                   -0.7266822591642585      0.31446289565152474
2.88E9                   -0.6905768189166244      0.3853517968381277
2.91E9                   -0.6475995860826146      0.45213377977718033
2.94E9                   -0.5982142679272068      0.5141484073327399
2.97E9                   -0.5429472341920495      0.5707873128962038
3.0E9                    -0.4823817279420384      0.6214999953724819
3.03E9                   -0.4171515634178145      0.6657989937815962
3.06E9                   -0.34793437171175534     0.7032643947658601
3.09E9                   -0.2754444617617628      0.7335476325818675
3.12E9                   -0.2004253692042747      0.7563745490423285
3.15E9                   -0.12364216895828442     0.7715476897062065
3.18E9                   -0.045873628406486594    0.7789478218924164
3.21E9                   0.03209572289228433      0.7785346687880467
3.24E9                   0.10948353394396673      0.770346861345857
3.27E9                   0.18551751443382314      0.7545011149011495
3.3E9                    0.25944319276292394      0.7311906401940109
3.33E9                   0.33053148691090545      0.7006827989587199
3.36E9                   0.3980860241811616       0.6633160134525444
3.39E9                   0.461450141613029        0.6194959388397198
3.42E9                   0.5200134905741429       0.5696909094436338
3.45E9                   0.5732181580364148       0.5144266768625434
3.48E9                   0.6205642054397252       0.4542804718446152
3.51E9                   0.6616145173745935       0.3898744438596523
3.54E9                   0.6959988510145334       0.3218685618175396
3.57E9                   0.7234169879059114       0.2509530928882933
3.6E9                    0.7436409145835878       0.17784080821169737
3.63E9                   0.7565159967057007       0.10325908695157071
3.66E9                   0.7619611574793691       0.027942097660876394
3.69E9                   0.7599681170638093       -0.0473767731151635
3.72E9                   0.7505997886763538       -0.12197209771881756
3.75E9                   0.7339879569919732       -0.19513307267658353
3.78E9                   0.7103303874996449       -0.26616958993675793
3.81E9                   0.6798875341419071       -0.3344176727911961
3.84E9                   0.6429790228872279       -0.39924428887849794
3.87E9                   0.5999800786468427       -0.46005161953186535
3.9E9                    0.5513180179202927       -0.5162809336203079
3.93E9                   0.4974688453239898       -0.5674162607551219
3.96E9                   0.4389538834510258       -0.6129880574537372
3.99E9                   0.37633626485947946      -0.6525769977007903
4.02E9                   0.3102170584680785       -0.6858179082195339
4.05E9                   0.24123081292118143      -0.7124037413744038
4.08E9                   0.1700403737948106       -0.7320893753405744
4.11E9                   0.09733094516001498      -0.7446949813830834
4.14E9                   0.02380348305287541      -0.7501087109489679
4.17E9                   -0.04983240191688765     -0.7482885188042349
4.2E9                    -0.12286581170039562     -0.7392630285471926
4.23E9                   -0.19459197983431178     -0.7231314364481776
4.26E9                   -0.26431956439638915     -0.7000625172216086
4.29E9                   -0.3313776943942137      -0.6702928294581871
4.32E9                   -0.39512270430782026     -0.6341242190131899
4.35E9                   -0.4549445291162026      -0.5919206953967647
4.38E9                   -0.5102727450432739      -0.544104724457208
4.41E9                   -0.5605822326520042      -0.4911529549515541
4.44E9                   -0.6053984178110927      -0.43359138628482585
4.47E9                   -0.6443020240127768      -0.3719899914499395
4.5E9                    -0.6769332549178277      -0.30695682921668016
4.53E9                   -0.7029953235014329      -0.2391317060921376
4.56E9                   -0.7222572541199428      -0.1691794754503296
4.59E9                   -0.734555905073955       -0.09778308295767636
4.62E9                   -0.7397971887640525      -0.025636480027728472
4.65E9                   -0.7379565003225785      0.04656247329985644
4.68E9                   -0.7290783969363428      0.11811900996509375
4.71E9                   -0.7132755906503858      0.1883482845060116
4.74E9                   -0.6907273197875625      0.25658198575523733
4.77E9                   -0.6616771463924822      0.3221747189562953
4.8E9                    -0.6264301960359374      0.38451015257343996
4.83E9                   -0.585349826250463       0.4430069107377412
4.86E9                   -0.5388536960401938      0.49712415890262546
4.89E9                   -0.48740922053131464     0.5463667912909597
4.92E9                   -0.43152843038217337     0.5902901005100996
4.95E9                   -0.3717623050528282      0.6285038036554159
4.98E9                   -0.30869469871992306     0.66067531917892
5.01E9                   -0.24293601486718386     0.6865322314779713
5.04E9                   -0.17511680105072608     0.7058639376657362
5.07E9                   -0.10588142322539601     0.7185225323340569
5.1E9                    -0.03588193834653879     0.7244230375254737
5.13E9                   0.03422777960871955      0.7235431113592891
5.16E9                   0.10379767543593453      0.7159223572244247
5.19E9                   0.17218697893271903      0.7016613044019172
5.22E9                   0.23876958177814736      0.6809200559496622
5.25E9                   0.30293936520987175      0.6539165325560575
5.28E9                   0.3641154415411892       0.6209242163593325
5.31E9                   0.42174719598078436      0.5822693330372144
5.34E9                   0.47531897967222037      0.5383274894764629
5.37E9                   0.5243543300871475       0.48951986880758525
5.4E9                    0.5684196682223073       0.43630913313307496
5.43E9                   0.6071275074918852       0.37919517647883616
5.46E9                   0.6401392695000361       0.3187108145303852
5.49E9                   0.6671678164319896       0.2554174211868425
5.52E9                   0.6879797796796041       0.18990045478716422
5.55E9                   0.7023977054221977       0.12276477895312786
5.58E9                   0.7103019700361135       0.05462968106383834
5.61E9                   0.7116323583828962       -0.013876477483249331
5.64E9                   0.70638915843479         -0.08212198808470939
5.67E9                   0.6946336161470598       -0.14947783457969407
5.7E9                    0.6764876227116425       -0.2153239064517683
5.73E9                   0.6521325738799479       -0.2790551904113276
5.76E9                   0.6218074349090085       -0.34008773238465495
5.79E9                   0.5858061337762893       -0.39786420626764185
5.82E9                   0.5444744513652842       -0.45185901523357463
5.85E9                   0.49820655850531853      -0.5015829473246466
5.88E9                   0.4474412784392458       -0.5465874643550821
5.91E9                   0.3926580699586872       -0.5864686994418632
5.94E9                   0.33437267262126513      -0.6208711859266262
5.97E9                   0.27313234965846295      -0.6494912728874452
6.0E9                    0.20951069773284045      -0.6720801311279265
