% Model:              three_layers reality at 0.1mm.mph
% Version:            COMSOL 5.6.0.280
% Date:               Mar 2 2022, 21:20
% Table:              表格 1 - 全局计算 1
% freq (Hz)              real(emw.S11) (1)        imag(emw.S11) (1)
300000000                0.5267423763865473       -0.7538839650877294
330000000                0.4537269399108095       -0.7979931490525316
360000000                0.3771932984539639       -0.835210156017695
390000000                0.2977598698254056       -0.8652457408854235
420000000                0.21607568515054787      -0.8878667861903988
450000000                0.13281362649069325      -0.9028995815499468
480000000                0.04866381717499433      -0.9102323012882346
510000000                -0.035672922874282524    -0.9098167556898566
540000000                -0.11949159049529712     -0.9016694568806334
570000000                -0.2020894801685544      -0.885872021699602
600000000                -0.2827726113528251      -0.8625709252444541
630000000                -0.3608620669906042      -0.8319766156040047
660000000                -0.4357001991476839      -0.7943620007414552
690000000                -0.50665665185589        -0.7500603213040279
720000000                -0.5731341478721559      -0.699462427396236
750000000                -0.6345739842260422      -0.6430134827629886
780000000                -0.6904611817118628      -0.5812091255237827
810000000                -0.7403292343780166      -0.5145911210997192
840000000                -0.7837644081402833      -0.4437425488439295
870000000                -0.8204095410809704      -0.3692825700968645
900000000                -0.8499673028231662      -0.2918608310824614
930000000                -0.8722028762912587      -0.21215155881204104
960000000                -0.8869460314521886      -0.13084741285405377
990000000                -0.8940925680466609      -0.048653158913232346
1020000000               -0.8936051118869607      0.0337207670301223
1050000000               -0.885513257432768       0.11556473406971626
1080000000               -0.8699130575626548      0.19617636064738414
1110000000               -0.846965869698577       0.2748668582744652
1140000000               -0.816896575489038       0.35096720661033554
1170000000               -0.7799911989323293      0.4238340951930982
1200000000               -0.7365939551079318      0.49285557043907313
1230000000               -0.687103768131181       0.5574563317525335
1260000000               -0.631970302866831       0.6171026257109906
1290000000               -0.5716895598266651      0.6713066935948987
1320000000               -0.5067990867427187      0.7196307340737722
1350000000               -0.4378728633420581      0.7616903498029456
1380000000               -0.36551591804689515     0.7971574537254386
1410000000               -0.2903587362888446      0.8257626181169059
1440000000               -0.2130515205270932      0.8472968562827481
1470000000               -0.13425836123451837     0.8616128336945569
1500000000               -0.054651376703954924    0.8686255117114329
1530000000               0.02509512258073965      0.8683122329790758
1560000000               0.10431039220157229      0.8607122630682756
1590000000               0.18233288495218114      0.845925807707375
1620000000               0.25851570898513254      0.8241125292289775
1650000000               0.33223187092185785      0.7954895894076431
1680000000               0.4028792659817235       0.7603292488501137
1710000000               0.4698853814358726       0.7189560554314414
1740000000               0.532711683860881        0.6717436560408726
1770000000               0.5908576646987819       0.6191112671632758
1800000000               0.6438645226419748       0.5615198405627757
1830000000               0.6913184650399118       0.49946796071908406
1860000000               0.7328536140629585       0.4334875106645501
1890000000               0.768154506587753        0.3641391425587439
1920000000               0.7969581797041766       0.29200758896358076
1950000000               0.8190558365518442       0.21769684995349647
1980000000               0.8342940895316708       0.14182529066077537
2010000000               0.842575780306661        0.06502068286964492
2040000000               0.8438603779642971       -0.012084776468284581
2070000000               0.83816395866628         -0.08885943767640672
2100000000               0.8255587718877795       -0.16467713060943678
2130000000               0.8061724000707855       -0.23892202618613487
2.16E9                   0.7801865202053385       -0.31099339759295835
2.19E9                   0.7478352775033863       -0.38031025241292005
2.22E9                   0.7094032830083479       -0.4463158078437043
2.25E9                   0.6652232484441779       -0.5084817825735198
2.28E9                   0.6156732729703436       -0.5663124802028842
2.31E9                   0.561173797180148        -0.6193486410730981
2.34E9                   0.5021842394747046       -0.6671710412342403
2.37E9                   0.4391993280696019       -0.709403818924287
2.4E9                    0.3727451380723853       -0.7457175087144543
2.43E9                   0.30337483721512887      -0.7758317594653665
2.46E9                   0.23166413854743287      -0.7995177008023445
2.49E9                   0.15820645963398317      -0.8165999015505703
2.52E9                   0.08360780665040579      -0.8269578347012662
2.55E9                   0.008481450218140374     -0.8305267411609434
2.58E9                   -0.06655746254801241     -0.8272977986752296
2.61E9                   -0.14089714242856707     -0.8173175850604315
2.64E9                   -0.21393402120183486     -0.800686970999319
2.67E9                   -0.2850771523214779      -0.7775597086779427
2.7E9                    -0.3537522714626373      -0.7481409801593611
2.73E9                   -0.4194057926008352      -0.7126859929897607
2.76E9                   -0.48150898112483936     -0.6714984732544566
2.79E9                   -0.53956235191063        -0.6249287817705951
2.82E9                   -0.5931001403446559      -0.5733714337252036
2.85E9                   -0.6416946104848331      -0.5172619552506561
2.88E9                   -0.6849599993583023      -0.45707314455210746
2.91E9                   -0.7225559808745926      -0.3933108649269408
2.94E9                   -0.7541906057092311      -0.32650949528164186
2.97E9                   -0.7796227134422169      -0.257227136391113
3.0E9                    -0.7986638264939763      -0.18604064396650266
3.03E9                   -0.8111795352743156      -0.11354054220692084
3.06E9                   -0.8170903803244706      -0.04032586359780367
3.09E9                   -0.8163722349235638      0.033001041345068344
3.12E9                   -0.8090561918212686      0.10583968008016426
3.15E9                   -0.7952279602388779      0.1775965344440733
3.18E9                   -0.7750267832035647      0.24769007156706638
3.21E9                   -0.7486438899712328      0.31555560389867726
3.24E9                   -0.7163205031245656      0.38064995443838323
3.27E9                   -0.6783454246340131      0.4424558855523173
3.3E9                    -0.6350522293192207      0.5004862530360532
3.33E9                   -0.5868160978880924      0.5542878505157007
3.36E9                   -0.5340503247890463      0.6034449133787997
3.39E9                   -0.477202538679851       0.6475822555647013
3.42E9                   -0.4167506753043722      0.6863680169482596
3.45E9                   -0.3531987441143587      0.7195160034602692
3.48E9                   -0.28707243099512214     0.7467876066396134
3.51E9                   -0.21891457997579666     0.7679932938796892
3.54E9                   -0.14928059690440723     0.7829936651732514
3.57E9                   -0.07873381755109606     0.7917000767260718
3.6E9                    -0.007840881607731377    0.7940748362594975
3.63E9                   0.06283284758091838      0.7901309791033513
3.66E9                   0.13272778002113236      0.7799316381535899
3.69E9                   0.201294478176675        0.7635890241522947
3.72E9                   0.2679978868557322       0.7412630353508635
3.75E9                   0.3323213860275651       0.713159517232952
3.78E9                   0.39377064181641774      0.6795281935991812
3.81E9                   0.4518772331676655       0.6406602902972884
3.84E9                   0.5062020329262513       0.5968858726819749
3.87E9                   0.5563383222200186       0.5485709182669385
3.9E9                    0.6019146166193977       0.4961141476113386
3.93E9                   0.6425971823701038       0.4399436396041039
3.96E9                   0.6780922220558581       0.3805132619681077
3.99E9                   0.7081477124237243       0.31829895328341046
4.02E9                   0.7325548834468038       0.2537948977509923
4.05E9                   0.7511493368866472       0.1875096364405897
4.08E9                   0.7638118131451592       0.11996215715811925
4.11E9                   0.7704686245746558       0.05167799842603165
4.14E9                   0.7710917785318987       -0.01681460729012455
4.17E9                   0.7656988125234001       -0.08498853730641197
4.2E9                    0.7543523571776003       -0.1523215236670017
4.23E9                   0.7371594337438587       -0.21829983567316014
4.26E9                   0.7142704856775577       -0.2824218925315748
4.29E9                   0.6858781417900514       -0.34420179182243105
4.32E9                   0.6522157116398966       -0.40317273388015806
4.35E9                   0.6135554194639401       -0.4588903208234202
4.38E9                   0.570206387165728        -0.5109357118366753
4.41E9                   0.5225123773295828       -0.5589186206086868
4.44E9                   0.4708493039414702       -0.6024801434367174
4.47E9                   0.4156225142922903       -0.6412954048926702
4.5E9                    0.35726384325405525      -0.6750760027939597
4.53E9                   0.2962284430343816       -0.7035722274042991
4.56E9                   0.2329913975678359       -0.7265750242477056
4.59E9                   0.16804413948871222      -0.7439176677003524
4.62E9                   0.10189069710023482      -0.7554771143106005
4.65E9                   0.03504380680739505      -0.7611750103172032
4.68E9                   -0.03197906796412653     -0.7609783358852251
4.71E9                   -0.09865976845367719     -0.7548996778305392
4.74E9                   -0.16448348125962386     -0.7429971313508256
4.77E9                   -0.22894275092225982     -0.7253738380407336
4.8E9                    -0.29154143300988783     -0.702177171003044
4.83E9                   -0.3517985615743274      -0.6735975780500368
4.86E9                   -0.4092521078044194      -0.6398670917792276
4.89E9                   -0.46346260637608766     -0.6012575127597624
4.92E9                   -0.5140166232171987      -0.5580782710447586
4.95E9                   -0.5605300344906787      -0.5106739729544014
4.98E9                   -0.6026510834398818      -0.4594216443765562
5.01E9                   -0.64006318030614        -0.4047276879567885
5.04E9                   -0.6724874113895715      -0.347024578187592
5.07E9                   -0.699684726076243       -0.2867673249723869
5.1E9                    -0.7214577753017608      -0.22442974202688434
5.13E9                   -0.7376523811588589      -0.1605005612238083
5.16E9                   -0.7481586251430246      -0.09547943685904157
5.19E9                   -0.7529115511588849      -0.029872883932803282
5.22E9                   -0.7518914873101366      0.035809808572969844
5.25E9                   -0.7451239957493436      0.10106065444353161
5.28E9                   -0.732679460864216       0.16537700865013144
5.31E9                   -0.7146723231649519      0.228265543326157
5.34E9                   -0.6912599619337301      0.28924613698615664
5.37E9                   -0.6626412274881498      0.3478556479730314
5.4E9                    -0.6290546263248169      0.40365153653761204
5.43E9                   -0.5907761695395938      0.456215294907953
5.46E9                   -0.5481169047955031      0.5051556435741553
5.49E9                   -0.5014201621107881      0.5501114552782707
5.52E9                   -0.45105855188297533     0.5907543750779033
5.55E9                   -0.3974307589875283      0.6267911139066765
5.58E9                   -0.340958179078436       0.6579654033785063
5.61E9                   -0.282081442076613       0.6840596102595223
5.64E9                   -0.22125686272631687     0.7048960188175073
5.67E9                   -0.15895284895659625     0.720337796083441
5.7E9                    -0.09564628736140685     0.7302896561929577
5.73E9                   -0.03181891512105999     0.734698233955527
5.76E9                   0.03204631556495272      0.733552166243661
5.79E9                   0.09546886797176982      0.7268818684766389
5.82E9                   0.15797421927335586      0.7147589896969255
5.85E9                   0.2190973849661834       0.697295537699327
5.88E9                   0.2783863203524401       0.6746426828460601
5.91E9                   0.3354051552546746       0.6469892676647553
5.94E9                   0.38973723263065096      0.6145600609486268
5.97E9                   0.4409879386657787       0.5776137963824055
6.0E9                    0.48878732476728326      0.5364410286839455
