% Model:              three_layers reality at 0.1mm.mph
% Version:            COMSOL 5.6.0.280
% Date:               Mar 2 2022, 21:12
% Table:              表格 1 - 全局计算 1
% freq (Hz)              real(emw.S11) (1)        imag(emw.S11) (1)
300000000                0.5281540233928708       -0.753449513705814
330000000                0.4552767450379648       -0.7976540664180773
360000000                0.37887335591813276      -0.83498742467309
390000000                0.29955986452696026      -0.865159707585249
420000000                0.21798287052476795      -0.8879368963795531
450000000                0.13481285020283967      -0.9031440979854521
480000000                0.050737592807225874     -0.910668016106521
510000000                -0.033544300367796966    -0.9104587038634953
540000000                -0.11732988769825159     -0.9025306378576943
570000000                -0.1999183286882822      -0.8869631352696349
600000000                -0.2806172745249404      -0.8639001271402109
630000000                -0.35874917285224894     -0.8335492978029256
660000000                -0.433657443033274       -0.7961806009867105
690000000                -0.5047124723905656      -0.7521241659208991
720000000                -0.5713173806989764      -0.7017676108875242
750000000                -0.6329134980745215      -0.645552787148161
780000000                -0.6889855016510713      -0.5839719818796343
810000000                -0.7390661575973585      -0.5175636149763889
840000000                -0.7827406176335446      -0.4469074706565861
870000000                -0.8196502227500192      -0.3726195109111401
900000000                -0.8494957716141697      -0.29534632342764827
930000000                -0.8720402168294825      -0.2157592615614421
960000000                -0.8871107585914484      -0.13454833832690932
990000000                -0.8946003123961633      -0.05241593987204904
1020000000               -0.8944683351004592      0.02992957353320628
1050000000               -0.8867410016311272      0.11178030970523262
1080000000               -0.8715107327281632      0.19243525982069448
1110000000               -0.8489350823522378      0.2712066176713512
1140000000               -0.819235001318376       0.3474259354187093
1170000000               -0.7826925014324142      0.4204500510729474
1200000000               -0.7396477515498721      0.4896667268558865
1230000000               -0.6904956435446348      0.5544999421151069
1260000000               -0.6356818720231343      0.6144147898527866
1290000000               -0.5756985765134547      0.6689219320754224
1320000000               -0.511079598993914       0.7175815755518505
1350000000               -0.44239541272669086     0.760006936461645
1380000000               -0.3702477805047266      0.7958671694631541
1410000000               -0.2952642015716835      0.8248897437783467
1440000000               -0.21809220685348507     0.8468622558025976
1470000000               -0.13939356141139        0.8616336745491968
1500000000               -0.05983843167306979     0.8691150225862301
1530000000               0.019900427005895338     0.8692795010358234
1560000000               0.0991534098035146       0.8621620726988516
1590000000               0.1772596792587974       0.8478585221478658
1620000000               0.25357261362962474      0.8265240159161924
1650000000               0.3274650446640891       0.7983711894805137
1680000000               0.39833424679204266      0.763667790759609
1710000000               0.465606643945417        0.7227339121898728
1740000000               0.5287422042658442       0.6759388452779858
1770000000               0.5872384971133972       0.6236975927684236
1800000000               0.6406343906107321       0.5664670744140631
1830000000               0.688513371768093        0.5047420626747561
1860000000               0.7305064746506397       0.4390508847551864
1890000000               0.7662948053393287       0.369950927102793
1920000000               0.7956116553569548       0.2980239780772165
1950000000               0.8182441979915454       0.2238714438174418
1980000000               0.8340347643690968       0.14810947166495125
2010000000               0.8428816984020184       0.07136401466022226
2040000000               0.8447397917732755       -0.005734130125499408
2070000000               0.8396203020236304       -0.08255427752821501
2100000000               0.8275905585906514       -0.15847077331866422
2130000000               0.8087731633669684       -0.23286784599258478
2.16E9                   0.78334479401715         -0.30514436176943843
2.19E9                   0.751534619946975        -0.3747184540478472
2.22E9                   0.7136223424423754       -0.44103199965320583
2.25E9                   0.6699358720105331       -0.5035549153047548
2.28E9                   0.6208486572765821       -0.5617892491959426
2.31E9                   0.5667766804791402       -0.6152730444544067
2.34E9                   0.5081751345149439       -0.6635839529677909
2.37E9                   0.44553479471141505      -0.7063425797307716
2.4E9                    0.3793780948484843       -0.7432155376639766
2.43E9                   0.3102549115038173       -0.7739181889323441
2.46E9                   0.23873805566213502      -0.7982170378838584
2.49E9                   0.16541847183312602      -0.8159317202394633
2.52E9                   0.09090016315650883      -0.8269365053606459
2.55E9                   0.01579490766529563      -0.8311612069498011
2.58E9                   -0.05928309431959633     -0.8285914110946724
2.61E9                   -0.13372243122112604     -0.8192680101685812
2.64E9                   -0.2069193385352003      -0.8032861718989026
2.67E9                   -0.2782821149510501      -0.7807939994150022
2.7E9                    -0.3472352121590343      -0.7519911363539347
2.73E9                   -0.41322326236638995     -0.7171274016413752
2.76E9                   -0.47571527507895034     -0.6765013100424518
2.79E9                   -0.534209048467112       -0.6304582142450054
2.82E9                   -0.588235647842347       -0.5793878564809483
2.85E9                   -0.63736372241731        -0.5237212654139037
2.88E9                   -0.6812034649368096      -0.463927063500053
2.91E9                   -0.7194101000271104      -0.4005073080669898
2.94E9                   -0.7516868575100895      -0.3339929879836945
2.97E9                   -0.7777874255332238      -0.2649392717274643
3.0E9                    -0.7975178914201275      -0.1939205764962719
3.03E9                   -0.8107381780609109      -0.12152551150751226
3.06E9                   -0.8173629804095811      -0.04835174096992886
3.09E9                   -0.8173622045042527      0.024999189514819487
3.12E9                   -0.8107609118325567      0.09792701882331453
3.15E9                   -0.7976387744075022      0.1698378829977199
3.18E9                   -0.7781290499059549      0.2401493287224027
3.21E9                   -0.7524170909332578      0.3082951820234475
3.24E9                   -0.7207384073751091      0.37373022801543154
3.27E9                   -0.6833763054675889      0.43593465985251517
3.3E9                    -0.6406591315154071      0.494418258055671
3.33E9                   -0.5929571518828775      0.5487242650087775
3.36E9                   -0.5406791040890541      0.5984329232594064
3.39E9                   -0.4842684564347165      0.643164650490986
3.42E9                   -0.42419941566175323     0.6825828283691596
3.45E9                   -0.36097272377570583     0.7163961868661094
3.48E9                   -0.2951112862094858      0.7443607702419414
3.51E9                   -0.22715567413784835     0.766281475405086
3.54E9                   -0.15765954385895783     0.7820131579538648
3.57E9                   -0.08718501573691438     0.7914613057575095
3.6E9                    -0.016298054208484382    0.7945822844179659
3.63E9                   0.054436111200718784     0.7913831632368873
3.66E9                   0.12445748615029065      0.7819211343077342
3.69E9                   0.1932156982147035       0.766302540771719
3.72E9                   0.26017423847449417      0.7446815329227786
3.75E9                   0.32481452978281333      0.7172583725347224
3.78E9                   0.38663979664850423      0.6842774065005953
3.81E9                   0.4451787138807724       0.6460247309574094
3.84E9                   0.49998881250346444      0.6028255669446885
3.87E9                   0.5506596216856314       0.5550413690671233
3.9E9                    0.5968155251052549       0.5030666902082085
3.93E9                   0.6381183101631486       0.4473258283221802
3.96E9                   0.6742693894837313       0.38826928588598264
3.99E9                   0.7050116775116436       0.32637007783551486
4.02E9                   0.7301311111708984       0.2621199285642202
4.05E9                   0.7494578124251519       0.19602540104668123
4.08E9                   0.7628669008043225       0.12860399961198019
4.11E9                   0.7702789730657863       0.06038028156348557
4.14E9                   0.7716602722006674       -0.008117997152554379
4.17E9                   0.7670225671992729       -0.07636368787107808
4.2E9                    0.7564227587527683       -0.14383400023941892
4.23E9                   0.739962217430324        -0.2100141939457207
4.26E9                   0.7177858540431168       -0.27440120310048155
4.29E9                   0.6900809199123735       -0.3365071786791832
4.32E9                   0.6570755378518733       -0.3958629290918437
4.35E9                   0.6190369700937197       -0.45202123760288626
4.38E9                   0.5762696335475989       -0.5045600380676721
4.41E9                   0.5291128732137071       -0.5530854346614474
4.44E9                   0.47793850152032147      -0.5972345537588873
4.47E9                   0.4231481072727837       -0.6366782146800111
4.5E9                    0.3651701357721887       -0.6711234010135643
4.53E9                   0.3044567434464138       -0.7003155077267291
4.56E9                   0.24148043623185203      -0.7240403338811107
4.59E9                   0.17673050942056837      -0.742125788613023
4.62E9                   0.110709315882076        -0.7544432797378211
4.65E9                   0.043928397432648585     -0.76090875963299
4.68E9                   -0.023095480453247854    -0.7614834108307085
4.71E9                   -0.08984434842413691     -0.7561739626906029
4.74E9                   -0.15580306654319537     -0.7450326390257394
4.77E9                   -0.22046333431553286     -0.7281567431513862
4.8E9                    -0.28332764612255396     -0.7056878903522704
4.83E9                   -0.343913165780628       -0.6778108980402975
4.86E9                   -0.40175549668014177     -0.6447523418936003
4.89E9                   -0.4564123237568513      -0.6067787838810624
4.92E9                   -0.5074669007471295      -0.564194677234661
4.95E9                   -0.5545313524834209      -0.5173399551462768
4.98E9                   -0.5972497588684637      -0.46658731426549416
5.01E9                   -0.6353009858496345      -0.41233921001189827
5.04E9                   -0.6684012294661466      -0.35502458731133535
5.07E9                   -0.6963062417900943      -0.2950953767370965
5.1E9                    -0.7188132120239796      -0.23302279181678967
5.13E9                   -0.7357622821194888      -0.16929346791701322
5.16E9                   -0.7470376838444288      -0.10440548603367883
5.19E9                   -0.7525684925963311      -0.03886432513738129
5.22E9                   -0.7523290010684054      0.026821216266431087
5.25E9                   -0.7463387210454558      0.09214309425554029
5.28E9                   -0.7346620227904999      0.15659806055024122
5.31E9                   -0.7174074188730339      0.21969164585868423
5.34E9                   -0.6947264953025285      0.2809420606623085
5.37E9                   -0.6668124908499836      0.33988398412185533
5.4E9                    -0.6338985278594349      0.3960722054941072
5.43E9                   -0.5962555048096266      0.4490850776282604
5.46E9                   -0.5541896705133276      0.49852774098317615
5.49E9                   -0.5080399095586744      0.5440350798357206
5.52E9                   -0.4581747766222165      0.5852743789199714
5.55E9                   -0.40498932259863674     0.6219476575718504
5.58E9                   -0.3489017578867826      0.6537936684264443
5.61E9                   -0.2903499972175978      0.680589558103339
5.64E9                   -0.22978812561508272     0.7021521969040052
5.67E9                   -0.16768281645362038     0.7183391912791358
5.7E9                    -0.10450972158344154     0.7290495941752353
5.73E9                   -0.04074984391414578     0.7342243228124726
5.76E9                   0.023114100432597873     0.7338462825372742
5.79E9                   0.08660131719431181      0.7279401846135282
5.82E9                   0.14923653929137012      0.7165720421818473
5.85E9                   0.21055356110824466      0.6998483362307815
5.88E9                   0.27009865363457985      0.6779148599317182
5.91E9                   0.3274338171850925       0.6509552675098756
5.94E9                   0.38213984230258086      0.6191893651833638
5.97E9                   0.4338191657007562       0.5828711831651984
6.0E9                    0.48209852062174474      0.5422868611442294
