% Model:              three_layers reality at 0.1mm.mph
% Version:            COMSOL 5.6.0.280
% Date:               Mar 1 2022, 10:43
% Table:              表格 1 - 全局计算 1
% freq (Hz)              real(emw.S11) (1)        imag(emw.S11) (1)
300000000                0.5433656408687896       -0.7330374078614598
330000000                0.47411838259515593      -0.7780550127511804
360000000                0.4012799864686201       -0.8166725379617447
390000000                0.3254182728544308       -0.8485963302721778
420000000                0.24712969246590755      -0.8735838928240294
450000000                0.16703364090180842      -0.8914465076739557
480000000                0.08576686757144465      -0.9020513297353127
510000000                0.003977901431091268     -0.9053229616920888
540000000                -0.07767853417148292     -0.9012445112546357
570000000                -0.15854711767987803     -0.8898581287355154
600000000                -0.23797751871223236     -0.8712650218338327
630000000                -0.3153299510570043      -0.8456249457070026
660000000                -0.3899806527997669      -0.8131551688512242
690000000                -0.4613272513588924      -0.7741289189488968
720000000                -0.5287939685537516      -0.7288733170202568
750000000                -0.5918366187624791      -0.6777668130910327
780000000                -0.6499473525666802      -0.6212361418879766
810000000                -0.7026590990724403      -0.5597528222428879
840000000                -0.7495496612520768      -0.4938292295833436
870000000                -0.7902454212603482      -0.4240142760355434
900000000                -0.8244246159233222      -0.3508887377624971
930000000                -0.8518201465662285      -0.2750602739146997
960000000                -0.8722218921306543      -0.19715818583039577
990000000                -0.885478499962326       -0.11782796870600719
1020000000               -0.8914986345723603      -0.03772571074101708
1050000000               -0.8902516709120436      0.042487603025214316
1080000000               -0.8817678253185672      0.12215182336252824
1110000000               -0.8661377240758578      0.20061334741756798
1140000000               -0.8435114162142949      0.2772307483506382
1170000000               -0.8140968438323579      0.3513802670379368
1200000000               -0.7781577895875235      0.42246111078055865
1230000000               -0.7360113270173718      0.4899005069068758
1260000000               -0.6880248048232591      0.5531584630047174
1290000000               -0.6346124012323162      0.611732189653534
1320000000               -0.5762312887560505      0.6651601465123758
1350000000               -0.5133774533452843      0.7130256777339099
1380000000               -0.4465812145370891      0.7549602084653393
1410000000               -0.37640249546805826     0.7906459796857105
1440000000               -0.3034258926192571      0.8198183046982028
1470000000               -0.2282555958921104      0.842267336170915
1500000000               -0.15151020921717998     0.8578393383891874
1530000000               -0.07381752113349815     0.8664374646784033
1560000000               0.004190726729829386     0.8680220450555132
1590000000               0.08188402739863553      0.8626103938301232
1620000000               0.15863820889064828      0.8502761510961637
1650000000               0.2338404066244964       0.8311481758373571
1680000000               0.30689387010908364      0.8054090116070691
1710000000               0.37722256956386746      0.7732929485481249
1740000000               0.444275571555713        0.7350837077379231
1770000000               0.5075311558505405       0.6911117757572349
1800000000               0.5665006494780939       0.6417514186348606
1830000000               0.6207319569631718       0.5874174054392917
1860000000               0.6698127692045276       0.5285614722871947
1890000000               0.7133734364145078       0.4656685579608814
1920000000               0.7510894936735437       0.3992528422459183
1950000000               0.7826838304462804       0.32985361799696555
1980000000               0.807928498388716        0.25803102723164817
2010000000               0.826646154433615        0.18436169081890155
2040000000               0.8387111389634048       0.10943425987246458
2070000000               0.844050191452443        0.03384491468437672
2100000000               0.8426428079680112       -0.041807166286673775
2130000000               0.8345212455870634       -0.11692434971048336
2.16E9                   0.819770176395916        -0.19091509215620125
2.19E9                   0.7985259855748232       -0.2631984821080537
2.22E9                   0.770975691081765        -0.33320877839683805
2.25E9                   0.7373554360662006       -0.4003999338304547
2.28E9                   0.6979484777942968       -0.46425005606594116
2.31E9                   0.653082595551675        -0.5242656844825372
2.34E9                   0.6031269073404293       -0.5799856729001628
2.37E9                   0.5484882451570922       -0.6309844356962618
2.4E9                    0.48960742660059414      -0.676874438558352
2.43E9                   0.4269558058616733       -0.717308102206696
2.46E9                   0.36103225734594613      -0.7519795501435292
2.49E9                   0.292360358504866        -0.7806266114916164
2.52E9                   0.22148531379963574      -0.803033163606005
2.55E9                   0.14897027524226944      -0.8190315434536137
2.58E9                   0.07539201763264353      -0.8285046388059613
2.61E9                   0.0013361581682049817    -0.8313873914710261
2.64E9                   -0.07260783459696683     -0.8276676328393686
2.67E9                   -0.1458516592183127      -0.8173862953360903
2.7E9                    -0.21781312727753122     -0.8006370804628027
2.73E9                   -0.2879209931582142      -0.7775656518253931
2.76E9                   -0.35561964776973354     -0.7483683965741724
2.79E9                   -0.42037366020093164     -0.7132907791561336
2.82E9                   -0.4816721465916537      -0.6726253011396692
2.85E9                   -0.5390329396243957      -0.626709078142313
2.88E9                   -0.5920065275061648      -0.5759210466290254
2.91E9                   -0.6401797288825612      -0.5206788172460372
2.94E9                   -0.6831790695574459      -0.4614351961519316
2.97E9                   -0.7206738279302973      -0.39867440059802894
3.0E9                    -0.7523787181246622      -0.33290799975281815
3.03E9                   -0.7780561829637106      -0.26467061581996554
3.06E9                   -0.7975182726817724      -0.19451542424095739
3.09E9                   -0.8106280896605984      -0.12300949483181932
3.12E9                   -0.8173007843823155      -0.050729017917574275
3.15E9                   -0.8175040929030793      0.02174553876496178
3.18E9                   -0.8112584115040837      0.0938342959722281
3.21E9                   -0.7986364094416446      0.1649628052339596
3.24E9                   -0.7797621857680479      0.23456682205389803
3.27E9                   -0.7548099808255015      0.30209696583561163
3.3E9                    -0.7240024571283494      0.3670232244568771
3.33E9                   -0.6876085679392635      0.4288392634043854
3.36E9                   -0.6459410349791059      0.4870665015325016
3.39E9                   -0.5993534596411788      0.5412579174113589
3.42E9                   -0.5482370949480514      0.5910015520541653
3.45E9                   -0.4930173088181784      0.6359236753057774
3.48E9                   -0.4341497729709394      0.6756915850833364
3.51E9                   -0.37211641638406934     0.7100160110424736
3.54E9                   -0.30742118732972473     0.7386530979149979
3.57E9                   -0.24058567310915038     0.761405949279944
3.6E9                    -0.1721446308897356      0.7781257200126708
3.63E9                   -0.10264148531809206     0.788712254938543
3.66E9                   -0.03262384810320995     0.7931142812474037
3.69E9                   0.03736088845898067      0.7913291717251477
3.72E9                   0.10676983751868363      0.7834023039049146
3.75E9                   0.17506874342246573      0.7694260464912643
3.78E9                   0.24173591458053725      0.7495384093837903
3.81E9                   0.3062659393777821       0.72392139765602
3.84E9                   0.3681731713797666       0.6927991121991515
3.87E9                   0.42699498250980156      0.656435638507042
3.9E9                    0.4822947951355948       0.6151327580811523
3.93E9                   0.533664912537616        0.5692275037835538
3.96E9                   0.5807291678017988       0.5190895637935111
3.99E9                   0.6231454024968063       0.46511852374332374
4.02E9                   0.6606077704062351       0.40774092870386963
4.05E9                   0.6928488436668432       0.34740714888526164
4.08E9                   0.7196414846453362       0.2845880447137798
4.11E9                   0.7408004412954938       0.21977144400009951
4.14E9                   0.7561836273607793       0.1534584611234461
4.17E9                   0.7656930597691848       0.08615970081229779
4.2E9                    0.7692754401455115       0.018391394792083186
4.23E9                   0.7669223815929229       -0.04932848182316115
4.26E9                   0.7586702925603416       -0.11648407438925097
4.29E9                   0.7445999350675226       -0.1825654622684938
4.32E9                   0.7248356746903127       -0.24707240051145646
4.35E9                   0.6995444360259591       -0.30951797430821415
4.38E9                   0.6689343721972549       -0.3694321530080371
4.41E9                   0.6332532526544239       -0.4263652289606261
4.44E9                   0.5927865717136456       -0.47989112261177724
4.47E9                   0.5478553813919715       -0.529610530891608
4.5E9                    0.4988138556016033       -0.5751538926253449
4.53E9                   0.44604659789260204      -0.6161841429681119
4.56E9                   0.3899657105163925       -0.6523992293716621
4.59E9                   0.3310076479724998       -0.6835343640443114
4.62E9                   0.26962988252050074      -0.7093639921490434
4.65E9                   0.20630741161040264      -0.7297034606566605
4.68E9                   0.14152913715737334      -0.7444103787661909
4.71E9                   0.07579414390062561      -0.7533856657033552
4.74E9                   0.009607899659128628     -0.7565742838718562
4.77E9                   -0.05652160374550306     -0.7539656538971471
4.8E9                    -0.12208775148863041     -0.7455937437909346
4.83E9                   -0.1865892282145737      -0.7315368195539067
4.86E9                   -0.24953393438521784     -0.7119168420239408
4.89E9                   -0.3104428597273436      -0.6868984969168358
4.92E9                   -0.36885386883709953     -0.6566878523037143
4.95E9                   -0.42432534940304195     -0.6215306489614709
4.98E9                   -0.476439674044546       -0.5817102418134319
5.01E9                   -0.5248064323694207      -0.5375452225965408
5.04E9                   -0.5690653999791155      -0.4893867626582675
5.07E9                   -0.6088892238288918      -0.4376157186926767
5.1E9                    -0.6439858163795239      -0.38263954201361655
5.13E9                   -0.6741004607498988      -0.3248890238492428
5.16E9                   -0.6990176324516972      -0.2648148972603712
5.19E9                   -0.7185625381964311      -0.2028843052684698
5.22E9                   -0.7326023604370804      -0.13957714013917646
5.25E9                   -0.7410471831496761      -0.07538226460055478
5.28E9                   -0.7438505676647665      -0.010793640911375866
5.31E9                   -0.7410097524474617      0.05369358801209376
5.34E9                   -0.7325654672501755      0.11758700870382169
5.37E9                   -0.7186013734476994      0.1804007814545365
5.4E9                    -0.6992431595909325      0.24165937348385472
5.43E9                   -0.6746573280016479      0.30090115372488846
5.46E9                   -0.6450497037945705      0.3576818385239757
5.49E9                   -0.6106636861266114      0.4115777867294814
5.52E9                   -0.5717782485790349      0.4621891428651411
5.55E9                   -0.528705686225806       0.5091428199651592
5.58E9                   -0.4817891035897399      0.5520953027234307
5.61E9                   -0.4313996408598179      0.5907352400003899
5.64E9                   -0.3779334449175091      0.6247857862506427
5.67E9                   -0.3218084059009947      0.6540066463793418
5.7E9                    -0.2634606972506829      0.6781957805799249
5.73E9                   -0.20334117364619886     0.6971907368134063
5.76E9                   -0.14191169110892954     0.7108695983535637
5.79E9                   -0.07964141158854049     0.7191515572350252
5.82E9                   -0.0170031395296407      0.7219971429925343
5.85E9                   0.0455302837940959       0.719408142029768
5.88E9                   0.10748952111183314      0.7114272349621228
5.91E9                   0.168412215612533        0.6981373633990025
5.94E9                   0.2278463988718329       0.679660823218963
5.97E9                   0.2853538142784938       0.6561580750407263
6.0E9                    0.3405131279532054       0.6278262652605272
