% Model:              three_layers reality at 0.1mm.mph
% Version:            COMSOL 5.6.0.280
% Date:               Feb 24 2022, 19:49
% Table:              表格 1 - 全局计算 1
% freq (Hz)              real(emw.S11) (1)        imag(emw.S11) (1)
300000000                0.5617633709540762       -0.7642745265847517
330000000                0.48889577780227467      -0.8114923262124247
360000000                0.41219962530717214      -0.8518918898744332
390000000                0.3322857429469018       -0.8851568254906088
420000000                0.24979736158991062      -0.9110250510174591
450000000                0.16540372062254108      -0.929292601961662
480000000                0.07979371595010676      -0.9398164938629286
510000000                -0.006330452810140841    -0.9425167914458096
540000000                -0.09225964551946558     -0.9373779645056101
570000000                -0.17728414850068736     -0.9244495743463479
600000000                -0.26070002049683455     -0.9038463141579991
630000000                -0.3418153825268115      -0.8757474180107025
660000000                -0.4199566084060871      -0.8403954500910724
690000000                -0.4944743680606738      -0.798094486169612
720000000                -0.5647494709167388      -0.7492077026008543
750000000                -0.6301984555629823      -0.6941543922700046
780000000                -0.6902788708677235      -0.6334064325586153
810000000                -0.7444941946588958      -0.5674842361376718
840000000                -0.7923983381529558      -0.4969522214325922
870000000                -0.8335996870691087      -0.42241384591822784
900000000                -0.8677646351039402      -0.3445062506049751
930000000                -0.8946205697708131      -0.26389457018293494
960000000                -0.9139582772807247      -0.18126596728686892
990000000                -0.9256337394489571      -0.0973234532952758
1020000000               -0.92956930275425        -0.012779562052611788
1050000000               -0.9257542077762508      0.07165005670376692
1080000000               -0.9142444747670915      0.15525305470643302
1110000000               -0.8951621494150598      0.23732674501803308
1140000000               -0.8686939207631442      0.31718433665972257
1170000000               -0.8350891310053026      0.3941609786113189
1200000000               -0.7946572042019329      0.4676195510164772
1230000000               -0.7477645278469922      0.5369561453011885
1260000000               -0.694830827229594       0.6016051801019677
1290000000               -0.6363250780970144      0.6610441051320971
1320000000               -0.5727610073483004      0.7147976517093647
1350000000               -0.5046922354710011      0.76244159471289
1380000000               -0.4327071167308811      0.8036059980123946
1410000000               -0.35742333501612206     0.8379779221383967
1440000000               -0.2794823139519932      0.865303579913255
1470000000               -0.19954349998446227     0.8853899324793256
1500000000               -0.1182785756996207      0.8981057248489631
1530000000               -0.036365659624763326    0.9033819659085254
1560000000               0.04551645415105483      0.9012118636816254
1590000000               0.12669396572073363      0.8916502316146151
1620000000               0.2065036012160144       0.8748123862280912
1650000000               0.2842979630699201       0.8508725603394205
1680000000               0.359450658974429        0.8200618593520969
1710000000               0.4313611737898544       0.7826657907957867
1740000000               0.49945945288464166      0.7390213993398778
1770000000               0.5632101692846921       0.6895140410822794
1800000000               0.622116651068976        0.6345738319109546
1830000000               0.6757244491537542       0.5746718053506296
1860000000               0.7236245291999879       0.5103158154933868
1890000000               0.7654560747027745       0.4420462204828517
1920000000               0.8009088913257458       0.37043138171130546
1950000000               0.829725405393253        0.29606301326259077
1980000000               0.8517022519577608       0.2195514154921615
2010000000               0.8666914501658323       0.14152062580198185
2040000000               0.8746011657039952       0.06260351895004422
2070000000               0.8753960620467987       -0.016563111749624538
2100000000               0.8690972439500165       -0.09534346155599421
2130000000               0.8557817983415135       -0.17310758002817256
2.16E9                   0.8355819393186942       -0.2492361663137439
2.19E9                   0.8086837655610503       -0.32312526569521227
2.22E9                   0.7753256399638272       -0.3941908402492966
2.25E9                   0.7357962027391913       -0.46187318743333317
2.28E9                   0.6904320304206408       -0.5256411818699036
2.31E9                   0.6396149539425938       -0.5849963172627485
2.34E9                   0.5837690488094411       -0.639476527193207
2.37E9                   0.5233573086659128       -0.6886597652337256
2.4E9                    0.45887800998972567      -0.7321673248451376
2.43E9                   0.3908607698250318       -0.7696668763145841
2.46E9                   0.3198622927043884       -0.800875187768114
2.49E9                   0.24646180216711022      -0.8255604776585437
2.52E9                   0.17125616734786392      -0.8435443178358096
2.55E9                   0.09485477750156567      -0.8547029816989533
2.58E9                   0.017874290188752796     -0.8589681380228011
2.61E9                   -0.05906654702291974     -0.8563268606353756
2.64E9                   -0.135351788066823       -0.8468210582604085
2.67E9                   -0.21037278376892196     -0.8305465607674984
2.7E9                    -0.283532368899231       -0.8076521154730969
2.73E9                   -0.35424898562925283     -0.7783383989628121
2.76E9                   -0.4219609792300501      -0.7428569277358662
2.79E9                   -0.4861311342940113      -0.7015086176716581
2.82E9                   -0.5462513295629167      -0.654641773784451
2.85E9                   -0.6018470966080298      -0.6026494260122736
2.88E9                   -0.6524818871586486      -0.5459660547322219
2.91E9                   -0.6977609264359005      -0.48506381366055634
2.94E9                   -0.7373345978058862      -0.4204483633357783
2.97E9                   -0.7709013438685524      -0.35265440687539856
3.0E9                    -0.798210083865961       -0.2822409959853344
3.03E9                   -0.8190621488508052      -0.20978665919772752
3.06E9                   -0.8333127334215331      -0.13588439694369395
3.09E9                   -0.8408718609119769      -0.06113658631721967
3.12E9                   -0.8417048592416715      0.013850160758499706
3.15E9                   -0.8358323470158571      0.08847014055833807
3.18E9                   -0.8233297334010065      0.16212365535880094
3.21E9                   -0.8043262400343262      0.23422201920081626
3.24E9                   -0.7790034582530181      0.3041924256908067
3.27E9                   -0.7475934599543141      0.3714826332858806
3.3E9                    -0.7103764850010497      0.4355654262292147
3.33E9                   -0.6676782323645116      0.4959428120682976
3.36E9                   -0.6198667858731033      0.5521499202862605
3.39E9                   -0.5673492086780936      0.6037585703300203
3.42E9                   -0.5105678432184452      0.6503804814173465
3.45E9                   -0.44999635574937635     0.6916701007078817
3.48E9                   -0.386135566166409       0.7273270309206081
3.51E9                   -0.3195091051517278      0.7570980429780936
3.54E9                   -0.2506589413497169      0.7807786639389337
3.57E9                   -0.18014082146041482     0.7982143351625091
3.6E9                    -0.10851966570766187     0.8093011403423411
3.63E9                   -0.03636496007873529     0.813986107625996
3.66E9                   0.0357538150657021       0.8122670943927114
3.69E9                   0.10727168286475895      0.8041922670963448
3.72E9                   0.17763256014488693      0.7898591917305406
3.75E9                   0.2462935090800576       0.7694135526386864
3.78E9                   0.3127288224035681       0.7430475186319078
3.81E9                   0.3764339167805748       0.7109977758194814
3.84E9                   0.43692901036285986      0.6735432467314694
3.87E9                   0.4937625609300671       0.631002515893291
3.9E9                    0.5465144410023403       0.5837309834501728
3.93E9                   0.5947988260058065       0.532117771468287
3.96E9                   0.6382667725748405       0.47658241184371813
3.99E9                   0.676608466844721        0.4175713501639755
4.02E9                   0.7095551283257215       0.3555543048288547
4.05E9                   0.7368805632609807       0.29102052402120354
4.08E9                   0.7584023715395791       0.22447498243068567
4.11E9                   0.7739828206341923       0.15643455454864869
4.14E9                   0.7835294060757203       0.0874241920110501
4.17E9                   0.7869951183860714       0.0179731220076439
4.2E9                    0.7843784313470739       -0.05138892465852919
4.23E9                   0.7757230184890699       -0.12013545028981457
4.26E9                   0.7611171977862701       -0.18774688361479133
4.29E9                   0.7406931019693328       -0.25371421575697284
4.32E9                   0.7146255742398072       -0.3175425594506247
4.35E9                   0.6831307941877441       -0.3787546106231705
4.38E9                   0.6464646429050198       -0.4368939937089697
4.41E9                   0.60492081700937         -0.49152847630798546
4.44E9                   0.5588286983650165       -0.5422530416567675
4.47E9                   0.5085509820699035       -0.5886928063658635
4.5E9                    0.45448106232546054      -0.6305057664392004
4.53E9                   0.3970401767396277       -0.6673853478747036
4.56E9                   0.33667431455484764      -0.6990627322669064
4.59E9                   0.2738509021539839       -0.7253089246987023
4.62E9                   0.20905528822116537      -0.7459365317360341
4.65E9                   0.14278705910433534      -0.760801221522545
4.68E9                   0.07555622086419689      -0.7698028448408334
4.71E9                   0.007879287538960967     -0.7728862043118782
4.74E9                   -0.059724685407341487    -0.7700414672115334
4.77E9                   -0.12673808662359606     -0.7613042240318303
4.8E9                    -0.19264872259928476     -0.7467551988000876
4.83E9                   -0.2569537535337731      -0.7265196177985377
4.86E9                   -0.31916356814528196     -0.7007662415551603
4.89E9                   -0.3788055740657661      -0.6697060625083866
4.92E9                   -0.435427877778156       -0.6335906695205378
4.95E9                   -0.4886028240879736      -0.5927102815933907
4.98E9                   -0.5379303614326316      -0.5473914569405469
5.01E9                   -0.583041197231433       -0.4979944891933812
5.04E9                   -0.6235997073510525      -0.44491050897227136
5.07E9                   -0.6593065655130774      -0.3885583155988804
5.1E9                    -0.6899010619679617      -0.32938096989454735
5.13E9                   -0.715163085986712       -0.26784218433221124
5.16E9                   -0.73491475363283        -0.20442255046977764
5.19E9                   -0.7490216701176444      -0.1396156452003465
5.22E9                   -0.7573938239083959      -0.07392405539848458
5.25E9                   -0.7599861153080729      -0.007855356034988022
5.28E9                   -0.7567985240888775      0.05808192896631074
5.31E9                   -0.7478759187582443      0.12338235783300969
5.34E9                   -0.7333075062728311      0.18754756883698606
5.37E9                   -0.7132259187173651      0.25009021542363763
5.4E9                    -0.6878059352608561      0.31053780265153014
5.43E9                   -0.6572628440417858      0.368436383323115
5.46E9                   -0.621850457975997       0.4233540700041504
5.49E9                   -0.5818588084103731      0.47488432103973
5.52E9                   -0.5376115492747845      0.5226489639768278
5.55E9                   -0.48946311069097637     0.5663009277866171
5.58E9                   -0.43779564472601423     0.6055266645321083
5.61E9                   -0.3830158065031579      0.640048251317673
5.64E9                   -0.32555141066183196     0.6696251732472102
5.67E9                   -0.265847995844761       0.6940557957990593
5.7E9                    -0.20436531967861013     0.713178537843001
5.73E9                   -0.1415737969607795      0.7268727525774413
5.76E9                   -0.07795088926600045     0.7350593138355282
5.79E9                   -0.013977458900270003    0.7377008942940008
5.82E9                   0.04986588731524275      0.7348019172005702
5.85E9                   0.11310242405722733      0.7264081689546251
5.88E9                   0.17526285456365384      0.712606075138539
5.91E9                   0.2358887324820815       0.6935216604982717
5.94E9                   0.29453572425342894      0.669319226203105
5.97E9                   0.35077669338559264      0.6401997813020528
6.0E9                    0.40420460103827766      0.6063992606532633
