% Model:              three_layers reality at 0.1mm.mph
% Version:            COMSOL 5.6.0.280
% Date:               Mar 8 2022, 10:05
% Table:              表格 1 - 全局计算 1
% freq (Hz)              real(emw.S11) (1)        imag(emw.S11) (1)
300000000                0.4122040432626042       -0.7800048857806268
330000000                0.3277870732079567       -0.8164112637406902
360000000                0.24037916107591412      -0.8439011015646175
390000000                0.1508896420272544       -0.8622278425589971
420000000                0.06025344592109719      -0.8712397366977783
450000000                -0.030580461464782795    -0.8708820505496085
480000000                -0.12066030966348418     -0.8611980377349084
510000000                -0.20904247565377734     -0.8423287092406135
540000000                -0.29480213929005006     -0.8145114410700789
570000000                -0.3770435865097113      -0.7780774593809755
600000000                -0.45491008646911607     -0.7334482490668859
630000000                -0.5275932589648665      -0.6811309392423022
660000000                -0.5943418458471763      -0.6217127273891693
690000000                -0.6544698008001428      -0.5558544128673221
720000000                -0.7073636164020809      -0.4842831190678986
750000000                -0.752488813730463       -0.4077842915187751
780000000                -0.7893955276629812      -0.3271930671108665
810000000                -0.8177231308114723      -0.24338511586908923
840000000                -0.8372038494949154      -0.15726706231239748
870000000                -0.8476653365308708      -0.06976659773481231
900000000                -0.8490321777181343      0.018177602354739805
930000000                -0.8413263211945647      0.1056260398950134
960000000                -0.824666431429127       0.1916485189952527
990000000                -0.799266182095982       0.2753341192510678
1020000000               -0.7654315143328367      0.3558009056700016
1050000000               -0.7235568987978745      0.43220526737806453
1080000000               -0.6741206511139016      0.5037507828060882
1110000000               -0.6176793608738859      0.5696965154893923
1140000000               -0.5548615039901182      0.6293646524096255
1170000000               -0.48636031679420794     0.6821474054488472
1200000000               -0.4129260178550254      0.7275131060287419
1230000000               -0.3353574697093513      0.7650114332823112
1260000000               -0.25449337797347066     0.7942777266409953
1290000000               -0.17120312901468734     0.8150363449631396
1320000000               -0.08637736986701833     0.8271030455819294
1350000000               -9.184355454797456E-4    0.8303863679240321
1380000000               0.08426927130700489      0.8248880177156359
1410000000               0.16828884448804315      0.8107022587693428
1440000000               0.25026028050696286      0.7880143300404767
1470000000               0.3293296288331856       0.7570979158831195
1500000000               0.4046777924212343       0.7183117070664596
1530000000               0.47552888986534614      0.6720950991631136
1560000000               0.5411580969390652       0.6189630831453141
1590000000               0.6008988917131497       0.5595003906274896
1620000000               0.6541496351657575       0.49435496280852526
1650000000               0.7003794269894623       0.4242308180183308
1680000000               0.7391331847125162       0.3498803977501685
1710000000               0.7700359029854127       0.2720964750955472
1740000000               0.7927960589370138       0.1917037126334491
1770000000               0.8072081387170553       0.10954995899384018
1800000000               0.8131542697114544       0.026497374692890943
1830000000               0.8106049524882842       -0.056586522047368
1860000000               0.7996188960268082       -0.1388377995243326
1890000000               0.7803419693728959       -0.2194049587905702
1920000000               0.7530052922977917       -0.29745759730532456
1950000000               0.7179224966985935       -0.37219481030956747
1980000000               0.6754861989943315       -0.4428532573192878
2010000000               0.6261637308923608       -0.5087148307378699
2040000000               0.5704921803524193       -0.5691138762925193
2070000000               0.509072793876587        -0.6234439311110306
2100000000               0.4425647815433504       -0.6711639637642137
2130000000               0.3716785417303175       -0.711804117679481
2.16E9                   0.29716827672620205      -0.7449709649764944
2.19E9                   0.21982390134236757      -0.770352251057313
2.22E9                   0.14046206806039746      -0.787721017584436
2.25E9                   0.0599160975531305       -0.7969387954680007
2.28E9                   -0.020975274592352024    -0.7979572619007932
2.31E9                   -0.10137999577204777     -0.7908174821429546
2.34E9                   -0.18048452793164513     -0.7756459344081992
2.37E9                   -0.25750353294633843     -0.7526473493182165
2.4E9                    -0.33168558746200455     -0.722095963369993
2.43E9                   -0.4023146534240469      -0.684328104746143
2.46E9                   -0.4687094510608484      -0.6397386239106594
2.49E9                   -0.530224205103931       -0.5887812907365396
2.52E9                   -0.5862531283724071      -0.5319707087115758
2.55E9                   -0.6362384557814782      -0.46988263168742334
2.58E9                   -0.6796800002253177      -0.4031509281709159
2.61E9                   -0.7161440601431889      -0.3324612746905845
2.64E9                   -0.7452704378098051      -0.25854268589380985
2.67E9                   -0.7667773052699597      -0.18215806400984225
2.7E9                    -0.7804641923389233      -0.10409456417130235
2.73E9                   -0.7862135015910016      -0.025154163539775978
2.76E9                   -0.7839908831776372      0.05385543771656808
2.79E9                   -0.7738446838136095      0.13212957083172805
2.82E9                   -0.7559045889903534      0.20887502351561307
2.85E9                   -0.7303795195800324      0.28331814098806557
2.88E9                   -0.6975548162433545      0.3547125879706385
2.91E9                   -0.6577887363033008      0.4223467384015709
2.94E9                   -0.6115082893131577      0.4855506470666331
2.97E9                   -0.559204444011064       0.5437025503441932
3.0E9                    -0.5014267476181543      0.59623484101525
3.03E9                   -0.4387774069392359      0.6426394633531578
3.06E9                   -0.3719048886513906      0.6824726786569354
3.09E9                   -0.3014971029895187      0.7153591573894863
3.12E9                   -0.22827424041052924     0.7409953616256807
3.15E9                   -0.15298133446183507     0.7591521900228761
3.18E9                   -0.07638062572794785     0.7696768664714774
3.21E9                   7.56198744443637E-4      0.7724940621867298
3.24E9                   0.0776558182644168       0.7676062483473628
3.27E9                   0.15355107457319708      0.7550932818914099
3.3E9                    0.22768868541500514      0.7351112302259009
3.33E9                   0.299336811761224        0.7078904416385943
3.36E9                   0.3677924141329264       0.6737328679925039
3.39E9                   0.43238832951067646      0.633008646261704
3.42E9                   0.4924999926496124       0.5861519477181453
3.45E9                   0.5475517154006724       0.5336561102021834
3.48E9                   0.5970224266361911       0.4760680819701786
3.51E9                   0.6404507669305755       0.413982226194916
3.54E9                   0.6774394303923853       0.3480335628962896
3.57E9                   0.7076586551539013       0.278890556873823
3.6E9                    0.7308487865045387       0.20724759076245525
3.63E9                   0.746821871731812        0.1338172847269313
3.66E9                   0.7554622885051953       0.05932283311614028
3.69E9                   0.7567264519126656       -0.01550947843958189
3.72E9                   0.7506416825466687       -0.08995743147049072
3.75E9                   0.7373043471648991       -0.16330959138563958
3.78E9                   0.7168774065835507       -0.23487149648049177
3.81E9                   0.6895875247622592       -0.30397127081713315
3.84E9                   0.6557219049614474       -0.3699646622697358
3.87E9                   0.6156250120270066       -0.43223956975091415
3.9E9                    0.5696953005092688       -0.49022018947185403
3.93E9                   0.5183819916355707       -0.5433709565712699
3.96E9                   0.46218184116494715      -0.5912004607435251
3.99E9                   0.40163574460676676      -0.6332654600139874
4.02E9                   0.3373249705410857       -0.6691750150425122
4.05E9                   0.2698668186557214       -0.6985946475373984
4.08E9                   0.19990956556894962      -0.7212503279659257
4.11E9                   0.12812666620729374      -0.7369320481140967
4.14E9                   0.05521028836249169      -0.745496742755565
4.17E9                   -0.018135656196162666    -0.7468703815665791
4.2E9                    -0.09120277671170207     -0.7410491354973727
4.23E9                   -0.1632855574203493      -0.7280996059297622
4.26E9                   -0.23368862847031988     -0.7081581697159844
4.29E9                   -0.30173383429329076     -0.6814295271744502
4.32E9                   -0.36676703151517515     -0.6481845426891913
4.35E9                   -0.42816458430930865     -0.6087574473159626
4.38E9                   -0.4853395381850777      -0.5635424438123139
4.41E9                   -0.5377474458721578      -0.5129897305696374
4.44E9                   -0.5848917996110153      -0.45760095094984526
4.47E9                   -0.6263290033196947      -0.3979240805472542
4.5E9                    -0.6616728038861416      -0.33454778357228293
4.53E9                   -0.6905980977708085      -0.2680952947187518
4.56E9                   -0.7128440377931224      -0.19921790875378328
4.59E9                   -0.7282163844297627      -0.1285881815567733
4.62E9                   -0.7365890735928994      -0.056892959521944314
4.65E9                   -0.7379050049887347      0.015173644720180924
4.68E9                   -0.7321760855291317      0.08691722535645158
4.71E9                   -0.7194825830331408      0.1576499263861732
4.74E9                   -0.6999718492490375      0.22669710812996668
4.77E9                   -0.6738564558980151      0.29340381792888637
4.8E9                    -0.6414117588864415      0.3571410561800205
4.83E9                   -0.6029728773399019      0.41731181638110953
4.86E9                   -0.558931060300025       0.47335684686198887
4.89E9                   -0.5097294239070227      0.524760044715273
4.92E9                   -0.4558580748194273      0.5710533646974714
4.95E9                   -0.39784868259091355     0.6118211184373918
4.98E9                   -0.3362686117304053      0.6467035566206302
5.01E9                   -0.27171476134712264     0.6753996660144872
5.04E9                   -0.2048072773033338      0.6976691673743929
5.07E9                   -0.1361832929242091      0.7133337590984652
5.1E9                    -0.06649081785859412     0.7222777020959534
5.13E9                   0.003617164334161416     0.724447868903273
5.16E9                   0.07348839644936422      0.7198533721906437
5.19E9                   0.14247690462964382      0.708564841730005
5.22E9                   0.209948484881874        0.6907133485658853
5.25E9                   0.2752861562494324       0.6664889103376601
5.28E9                   0.33789554568773483      0.6361384857765926
5.31E9                   0.39721009574381266      0.5999633965384431
5.34E9                   0.45269594969766375      0.5583161885783029
5.37E9                   0.5038563898478907       0.5115970267563942
5.4E9                    0.5502357727174152       0.4602497654812556
5.43E9                   0.5914229867274475       0.40475783414175925
5.46E9                   0.6270545175427902       0.3456400252911789
5.49E9                   0.6568172232268279       0.28344620144170957
5.52E9                   0.6804508954717975       0.2187528714073651
5.55E9                   0.6977506287624717       0.15215854892007738
5.58E9                   0.7085689550793557       0.08427880191141567
5.61E9                   0.7128176437885085       0.01574092826698599
5.64E9                   0.7104690267114582       -0.05282175325821412
5.67E9                   0.7015566966886401       -0.12077593900438405
5.7E9                    0.6861754522247971       -0.18749457261707592
5.73E9                   0.6644804233243019       -0.25236308694046355
5.76E9                   0.6366854029241638       -0.31478545333087565
5.79E9                   0.6030604952437426       -0.3741898750176271
5.82E9                   0.5639292399709934       -0.43003404481742225
5.85E9                   0.519665357049939        -0.4818099798807815
5.88E9                   0.47068919119844854      -0.5290485035986067
5.91E9                   0.41746385571617833      -0.5713234445581911
5.94E9                   0.3604910220098564       -0.6082555743594773
5.97E9                   0.3003062932834453       -0.639516241967764
6.0E9                    0.23747413117584948      -0.6648306120932417
