% Model:              three_layers reality at 0.1mm.mph
% Version:            COMSOL 5.6.0.280
% Date:               Mar 1 2022, 15:02
% Table:              表格 1 - 全局计算 1
% freq (Hz)              real(emw.S11) (1)        imag(emw.S11) (1)
300000000                0.621224039322327        -0.7604086399945282
330000000                0.551832907621634        -0.8123097721695072
360000000                0.4781744765270471       -0.8578925419084806
390000000                0.4008211914405765       -0.8968078395379486
420000000                0.32037439546384017      -0.9287581442619871
450000000                0.23745958921027857      -0.9535000102335012
480000000                0.1527214975112303       -0.9708460838478987
510000000                0.06681898304078207      -0.9806666510708744
540000000                -0.019580153052424266    -0.9828907111041609
570000000                -0.1058044430286767      -0.9775065728489221
600000000                -0.1911840558325352      -0.9645619720682925
630000000                -0.2750560897208402      -0.9441637095879621
660000000                -0.356769812459771       -0.9164768137818226
690000000                -0.4356918065671034      -0.8817232340436265
720000000                -0.511210978304794       -0.8401800752760356
750000000                -0.5827433889551383      -0.7921773873759406
780000000                -0.6497368689202085      -0.7380955270799222
810000000                -0.7116753761556182      -0.6783621133722616
840000000                -0.7680830625168462      -0.6134486012598153
870000000                -0.8185280143058858      -0.5438665016532922
900000000                -0.862625635287026       -0.47016327888313186
930000000                -0.9000416439545362      -0.39291795991227335
960000000                -0.930494660076564       -0.3127364918308468
990000000                -0.9537583588810645      -0.230246886892045
1020000000               -0.9696631753151799      -0.1460941958976645
1050000000               -0.9780975446763712      -0.06093535240163181
1080000000               -0.9790086700618551      0.024566068581936232
1110000000               -0.9724028113716771      0.10974513322304509
1140000000               -0.9583450948336645      0.19394082833328802
1170000000               -0.9369588463384603      0.2765012932262464
1200000000               -0.9084244560481534      0.3567889605568138
1230000000               -0.8729777859221175      0.4341855632723494
1260000000               -0.8309081357586913      0.5080969666517291
1290000000               -0.7825557870767785      0.5779577862123713
1320000000               -0.728309147810459       0.6432357542983814
1350000000               -0.6686015240100454      0.7034358008745496
1380000000               -0.6039075476760973      0.7581038169002653
1410000000               -0.53473929258895        0.8068300716174817
1440000000               -0.46164211234935104     0.8492522584293545
1470000000               -0.38519023649512785     0.8850581477037571
1500000000               -0.3059821626107245      0.913987828089822
1530000000               -0.22463588306383342     0.935835521972742
1560000000               -0.14178398614401805     0.9504509641901198
1590000000               -0.05806867174740909     0.9577403369669206
1620000000               0.025863278200390385     0.9576667577316137
1650000000               0.10936553460598582      0.9502503200893199
1680000000               0.19179722185577203      0.9355676917868578
1710000000               0.2725278457658167       0.9137512769212652
1740000000               0.3509421114046548       0.8849879529173365
1770000000               0.4264445948284772       0.8495173958869375
1800000000               0.49846423432948833      0.8076300109450156
1830000000               0.5664586088512582       0.7596644866949043
1860000000               0.6299179730321125       0.706004995712283
1890000000               0.6883690207833152       0.6470780650564685
1920000000               0.7413783515528906       0.5833491429646805
1950000000               0.7885556159500493       0.515318889762587
1980000000               0.8295563201605565       0.4435192224682929
2010000000               0.8640842710913532       0.368509144189704
2040000000               0.8918936472709604       0.29087039019403094
2070000000               0.9127906832370638       0.21120292350943082
2100000000               0.9266349581571642       0.13012031320489836
2130000000               0.9333402822358341       0.04824502827364227
2.16E9                   0.9328751768329724       -0.03379632032334314
2.19E9                   0.9252629459637561       -0.11537775811951195
2.22E9                   0.9105813371536109       -0.19587871564814985
2.25E9                   0.8889617883124515       -0.2746887560124471
2.28E9                   0.8605882551330186       -0.3512122266887587
2.31E9                   0.8256956139627327       -0.42487279131624905
2.34E9                   0.7845676446221476       -0.49511778402308526
2.37E9                   0.7375346213187186       -0.561422321464182
2.4E9                    0.684970571161848        -0.6232931214021351
2.43E9                   0.6272902754874352       -0.6802720165764615
2.46E9                   0.564946066006886        -0.7319391964094051
2.49E9                   0.49842441582207475      -0.7779162177036034
2.52E9                   0.42824228789535274      -0.8178687880191315
2.55E9                   0.35494321204379137      -0.8515092755605036
2.58E9                   0.2790931017569703       -0.8785988778768243
2.61E9                   0.2012758583207342       -0.8989493950159715
2.64E9                   0.12208882293725659      -0.912424579806375
2.67E9                   0.04213813296434399      -0.9189410589679661
2.7E9                    -0.03796597149802228     -0.9184688285686958
2.73E9                   -0.11761385236177767     -0.9110313297631237
2.76E9                   -0.19620115487064407     -0.8967051105809992
2.79E9                   -0.27313343204167195     -0.875619079687435
2.82E9                   -0.3478306786018719      -0.847953359246528
2.85E9                   -0.41973174087979626     -0.8139377461485883
2.88E9                   -0.48829856915262576     -0.7738497936038466
2.91E9                   -0.5530202796531751      -0.7280125281257045
2.94E9                   -0.6134169946457952      -0.6767918199526508
2.97E9                   -0.6690434305076454      -0.6205934279279699
3.0E9                    -0.7194922055640571      -0.5598597428022265
3.03E9                   -0.7643968419588814      -0.4950662553319767
3.06E9                   -0.8034344381163706      -0.4267177781252134
3.09E9                   -0.8363279912820085      -0.3553444522335288
3.12E9                   -0.862848352693232       -0.28149757116833607
3.15E9                   -0.8828158009815129      -0.2057452567038979
3.18E9                   -0.8961012228535549      -0.12866802179871997
3.21E9                   -0.9026268934524136      -0.05085425676343019
3.24E9                   -0.902366852232778       0.02710432477960853
3.27E9                   -0.8953468735949353      0.10461724352392739
3.3E9                    -0.8816440348632959      0.1810997794887676
3.33E9                   -0.861385887410642       0.2559774286124971
3.36E9                   -0.8347492398445976      0.3286902560828608
3.39E9                   -0.8019585651322143      0.3986971126039713
3.42E9                   -0.7632840464638866      0.46547968087984243
3.45E9                   -0.7190392793673466      0.5285463212737805
3.48E9                   -0.6695786504179551      0.5874356869206544
3.51E9                   -0.6152944155370225      0.6417200806368601
3.54E9                   -0.5566135035954448      0.6910085280020185
3.57E9                   -0.49399407352794694     0.7349495436697748
3.6E9                    -0.4279218555931974      0.7732335708537225
3.63E9                   -0.3589063091892083      0.8055950775200904
3.66E9                   -0.28747663097861337     0.8318142965102798
3.69E9                   -0.21417764783972199     0.8517186006222532
3.72E9                   -0.1395656291019531      0.8651835075271168
3.75E9                   -0.06420405220640149     0.8721333129078668
3.78E9                   0.011340644789498457     0.8725413536201008
3.81E9                   0.08650329166979508      0.8664299059906903
3.84E9                   0.16072416505920978      0.8538697274197106
3.87E9                   0.2334530898187076       0.8349792519853797
3.9E9                    0.30415343759004987      0.8099234523288354
3.93E9                   0.37230599963500866      0.7789123805392553
3.96E9                   0.43741271292514805      0.7421994002840735
3.99E9                   0.49900021869195527      0.7000791217819292
4.02E9                   0.5566232318507431       0.652885051256492
4.05E9                   0.6098676983215292       0.6009869678921294
4.08E9                   0.6583537163461326       0.5447880440843963
4.11E9                   0.7017381979860731       0.4847217286267251
4.14E9                   0.7397172488272276       0.4212484162603457
4.17E9                   0.7720282467312117       0.3548519305944433
4.2E9                    0.7984516044962544       0.2860358495354432
4.23E9                   0.8188122053125408       0.2153197035462322
4.26E9                   0.832980503753149        0.1432350769779495
4.29E9                   0.8408732881916752       0.07032164200311607
4.32E9                   0.8424541029084278       -0.002876846433978502
4.35E9                   0.8377333298461611       -0.0758165670613327
4.38E9                   0.8267679313123779       -0.14795763310754725
4.41E9                   0.8096608562590646       -0.2187680505201029
4.44E9                   0.7865601143789771       -0.28772760644308576
4.47E9                   0.7576575242739353       -0.35433166052278053
4.5E9                    0.7231871443147239       -0.4180948116976806
4.53E9                   0.6834233974464805       -0.4785544134061038
4.56E9                   0.6386789038943885       -0.5352739110464996
4.59E9                   0.5893020384048896       -0.5878459767660592
4.62E9                   0.5356742311156121       -0.6358954184758149
4.65E9                   0.47820703329387887      -0.6790818421179093
4.68E9                   0.4173389708131085       -0.7171020487037381
4.71E9                   0.3535322092447928       -0.7496921501402563
4.74E9                   0.2872690550200453       -0.7766293900582246
4.77E9                   0.21904831740192598      -0.7977336576280094
4.8E9                    0.14938155647189186      -0.8128686836234609
4.83E9                   0.07878924340484944      -0.8219429090672685
4.86E9                   0.007796860743432887     -0.824910018223028
4.89E9                   -0.0630690275725133      -0.8217691297653783
4.92E9                   -0.1332847051529866      -0.8125646429938924
4.95E9                   -0.202333198549146       -0.7973857396778216
4.98E9                   -0.2697081065546178      -0.776365546323255
5.01E9                   -0.33491733170888305     -0.7496799658445763
5.04E9                   -0.3974866842616459      -0.7175461914315568
5.07E9                   -0.45696333154379626     -0.6802209184595736
5.1E9                    -0.512919068831031       -0.6379982722791108
5.13E9                   -0.5649533907972502      -0.5912074705381997
5.16E9                   -0.6126963448502663      -0.5402102385877159
5.19E9                   -0.655811148669794       -0.4853979960793948
5.22E9                   -0.6939965539743651      -0.42718883320228473
5.25E9                   -0.7269889379464968      -0.3660242967348324
5.28E9                   -0.7545641038681954      -0.3023660095007139
5.31E9                   -0.776538774611849       -0.23669215094214283
5.34E9                   -0.7927717668698944      -0.16949382990027373
5.37E9                   -0.8031648394916675      -0.10127138211389486
5.4E9                    -0.8076632145751401      -0.03253062399601085
5.43E9                   -0.8062557737549462      0.036220908239790864
5.46E9                   -0.7989749340363774      0.10447770788936223
5.49E9                   -0.7858962079595572      0.1717400113483085
5.52E9                   -0.7671374527794564      0.23751745261430887
5.55E9                   -0.7428578134985874      0.3013326350333856
5.58E9                   -0.7132563655245271      0.3627245955770454
5.61E9                   -0.6785704646560569      0.421252135694794
5.64E9                   -0.6390738149864362      0.4764969918826923
5.67E9                   -0.595074269114212       0.5280668188400958
5.7E9                    -0.5469113795389176      0.5755979589942859
5.73E9                   -0.4949537246434013      0.6187579748602844
5.76E9                   -0.4395960363488427      0.6572479250626556
5.79E9                   -0.38125615811795993     0.6908043704910463
5.82E9                   -0.32037186112681715     0.7192011023287964
5.85E9                   -0.2573975437476985      0.7422505872040421
5.88E9                   -0.19280083670794923     0.7598051257290499
5.91E9                   -0.1270591348831017      0.7717577200641741
5.94E9                   -0.060656077376619426    0.7780426452646483
5.97E9                   0.005922000517334958     0.7786357194758927
6.0E9                    0.07218961759563723      0.7735542698482253
