% Model:              three_layers reality at 0.1mm.mph
% Version:            COMSOL 5.6.0.280
% Date:               Mar 1 2022, 15:07
% Table:              表格 1 - 全局计算 1
% freq (Hz)              real(emw.S11) (1)        imag(emw.S11) (1)
300000000                0.6214965448829368       -0.7617554957309367
330000000                0.5518934059571307       -0.8138011267022253
360000000                0.4779965438107079       -0.8594954196746969
390000000                0.4003839228790497       -0.8984862243681768
420000000                0.3196624145453843       -0.9304737370483105
450000000                0.23646304721583464      -0.9552129278145884
480000000                0.15143605124793622      -0.972515521708853
510000000                0.06524574103396415      -0.982251521414735
540000000                -0.021434723573942452    -0.984350261217919
570000000                -0.10792865335000812     -0.978800984475077
600000000                -0.19356118057227756     -0.9656529400643321
630000000                -0.27766460096605083     -0.9450149965838467
660000000                -0.3595836633708035      -0.9170547767107124
690000000                -0.43868076372590115     -0.881997317873961
720000000                -0.5143410005889419      -0.8401232692525634
750000000                -0.5859770501961818      -0.7917666390220645
780000000                -0.6530338205586936      -0.7373121095305838
810000000                -0.7149928455151461      -0.6771919419304279
840000000                -0.7713763817912208      -0.6118824954147262
870000000                -0.8217511745507539      -0.5419003896361441
900000000                -0.8657318596842153      -0.46779834206777227
930000000                -0.9029839740696073      -0.39016071515952166
960000000                -0.9332265485103224      -0.3095988108023957
990000000                -0.9562342618637786      -0.22674595153386365
1020000000               -0.9718391384235702      -0.14225239060730316
1050000000               -0.9799317751111819      -0.05678009359363652
1080000000               -0.9804620889000563      0.02900256356395794
1110000000               -0.9734395795081117      0.11442613583828316
1140000000               -0.9589331065347356      0.19882544377917782
1170000000               -0.9370701847077472      0.2815448573008502
1200000000               -0.9080358051731884      0.36194348380151736
1230000000               -0.8720707948631861      0.4394002179305294
1260000000               -0.8294697301667004      0.5133186109755388
1290000000               -0.7805784247834073      0.5831315204777282
1320000000               -0.7257910153607174      0.6483055025019304
1350000000               -0.6655466717621117      0.7083449118206806
1380000000               -0.6003259617568318      0.7627956781887181
1410000000               -0.5306469027753566      0.8112487298491449
1440000000               -0.45706073547989856     0.8533430390510222
1470000000               -0.38014745591504195     0.8887682677649951
1500000000               -0.30051114458402906     0.9172669954635009
1530000000               -0.21877513202302792     0.9386365145858424
1560000000               -0.1355770410455561      0.9527301831854406
1590000000               -0.0515637465429327      0.959458327934274
1620000000               0.03261370646982833      0.9587886945319266
1650000000               0.11630518604626001      0.950746446188833
1680000000               0.1988665177482286       0.9354137144717947
1710000000               0.2796644515277011       0.9129287102481712
1740000000               0.3580815130846162       0.8834844057903363
1770000000               0.4335207036206882       0.8473268021844778
1800000000               0.505410013184045        0.8047527992203695
1830000000               0.5732067151607912       0.7561076875444575
1860000000               0.6364014111978066       0.7017822855182105
1890000000               0.6945217983718948       0.6422097454438203
1920000000               0.7471361327754669       0.577862055911447
1950000000               0.7938563662566228       0.5092462688748425
1980000000               0.8343409357294935       0.4369004817070927
2010000000               0.8682971873831541       0.3613896056846061
2040000000               0.8954834208573509       0.28330095365109303
2070000000               0.915710541643319        0.2032396800237251
2100000000               0.928843312816618        0.12182410685689034
2130000000               0.9348012002106224       0.03968096934691298
2.16E9                   0.9335588076349552       -0.04255938672076515
2.19E9                   0.9251459003690194       -0.12426782427806554
2.22E9                   0.9096470152851645       -0.20482122110337542
2.25E9                   0.8872006539583644       -0.2836072328347225
2.28E9                   0.8579980518855792       -0.36002897855479
2.31E9                   0.8222815160773426       -0.4335096043695062
2.34E9                   0.7803423325700373       -0.5034966642452726
2.37E9                   0.7325182713644587       -0.5694662469812906
2.4E9                    0.6791907531661011       -0.6309267908643532
2.43E9                   0.6207817635597206       -0.6874225720981375
2.46E9                   0.5577505772747401       -0.7385369055277631
2.49E9                   0.49059029581871805      -0.7838951110020906
2.52E9                   0.41982415478141066      -0.8231672591283804
2.55E9                   0.34600156149820127      -0.8560706521331568
2.58E9                   0.2696938675340924       -0.8823719668042816
2.61E9                   0.19148992262923273      -0.9018889982585483
2.64E9                   0.11199147415628269      -0.9144919727817051
2.67E9                   0.03180847228087025      -0.9201044223746548
2.7E9                    -0.04844566995886908     -0.9187036255242289
2.73E9                   -0.12815882143477106     -0.9103206218206801
2.76E9                   -0.20672484710505312     -0.8950398078872839
2.79E9                   -0.28354825793523414     -0.8729981218907019
2.82E9                   -0.3580487628613829      -0.8443838248265337
2.85E9                   -0.42966568935139016     -0.8094348886884074
2.88E9                   -0.49786223901782983     -0.7684370043169335
2.91E9                   -0.5621295457579142      -0.7217212245583586
2.94E9                   -0.6219905046888079      -0.6696612615527461
2.97E9                   -0.6770033420685574      -0.6126704597861439
3.0E9                    -0.7267648981493112      -0.5511984694745821
3.03E9                   -0.7709135973388961      -0.4857276473919188
3.06E9                   -0.8091320825749003      -0.4167692146988016
3.09E9                   -0.8411494937854462      -0.3448592032787222
3.12E9                   -0.8667433732684424      -0.27055422400273454
3.15E9                   -0.885741184151873       -0.1944270916985371
3.18E9                   -0.8980214314656921      -0.1170623426575369
3.21E9                   -0.9035143787897479      -0.039051681282858866
3.24E9                   -0.9022023569356046      0.03901060725078468
3.27E9                   -0.8941196645558801      0.1165322414760984
3.3E9                    -0.8793520639083003      0.19292748874931653
3.33E9                   -0.8580358782355351      0.2676216351959139
3.36E9                   -0.8303567002997769      0.3400553455407472
3.39E9                   -0.796547724550161       0.40968887902184065
3.42E9                   -0.7568877182581759      0.47600612878111453
3.45E9                   -0.7116986496732635      0.5385184536650538
3.48E9                   -0.6613429940190544      0.5967682728338625
3.51E9                   -0.60622074085521        0.6503323954977138
3.54E9                   -0.5467661290232613      0.6988250602412931
3.57E9                   -0.48344413806997455     0.7419006609418736
3.6E9                    -0.4167467674314533      0.7792561393925217
3.63E9                   -0.34718913657647366     0.810633028340437
3.66E9                   -0.27530544080872094     0.8358191324666104
3.69E9                   -0.20164479789280743     0.8546498389791056
3.72E9                   -0.12676702088256456     0.8670090533205941
3.75E9                   -0.05123835182340511     0.87282975929847
3.78E9                   0.02437280963348485      0.8720942064184037
3.81E9                   0.09950015028474564      0.8648337306867152
3.84E9                   0.17358362946296105      0.8511282182809712
3.87E9                   0.24607357925191878      0.8311052240931387
3.9E9                    0.3164346940570809       0.8049387586798877
3.93E9                   0.38414988770314057      0.7728477573230214
3.96E9                   0.44872399803508256      0.7350942440469443
3.99E9                   0.5096873193925945       0.6919812023019304
4.02E9                   0.5665989423106798       0.6438501635854229
4.05E9                   0.6190498778484216       0.5910785265092056
4.08E9                   0.666665942688304        0.5340766215670778
4.11E9                   0.7091103808860567       0.4732845409227183
4.14E9                   0.7460861997147288       0.4091687568532312
4.17E9                   0.7773382001348929       0.3422185561929929
4.2E9                    0.8026546864945083       0.27294232073844477
4.23E9                   0.8218688445049129       0.20186368472480162
4.26E9                   0.8348597806499815       0.1295176004451833
4.29E9                   0.8415532196032185       0.05644634204673721
4.32E9                   0.8419218586374474       -0.01680452357554063
4.35E9                   0.8359853797561752       -0.08969017119586647
4.38E9                   0.8238101214676234       -0.16167052984787078
4.41E9                   0.8055084133503687       -0.2322142467806504
4.44E9                   0.7812375780579214       -0.30080257561797963
4.47E9                   0.7511986073725527       -0.36693316133838094
4.5E9                    0.715634521292153        -0.43012369464404276
4.53E9                   0.6748284218351          -0.48991540855040383
4.56E9                   0.6291012560189974       -0.5458763909209803
4.59E9                   0.5788093052662046       -0.5976046879585797
4.62E9                   0.5243414210321353       -0.6447311755572334
4.65E9                   0.4661160286295729       -0.6869221777543668
4.68E9                   0.4045779228899644       -0.7238818141015703
4.71E9                   0.34019488019841904      -0.7553540605056086
4.74E9                   0.2734541118431446       -0.7811245103972138
4.77E9                   0.2048585837599191       -0.8010218248625196
4.8E9                    0.13492322800302575      -0.8149188615930557
4.83E9                   0.06417107227037615      -0.8227334734353626
4.86E9                   -0.006870684665343596    -0.8244289685872579
4.89E9                   -0.07767462167857175     -0.8200142265170491
4.92E9                   -0.14771703644558531     -0.8095434667164222
4.95E9                   -0.21648184602243178     -0.7931156713127576
4.98E9                   -0.2834644137105799      -0.770873666981275
5.01E9                   -0.34817527005875243     -0.7430028760545309
5.04E9                   -0.41014369796743666     -0.7097297507649467
5.07E9                   -0.4689211549436243      -0.6713199077189806
5.1E9                    -0.5240845089838879      -0.6280759816927378
5.13E9                   -0.5752390679794517      -0.5803352184539823
5.16E9                   -0.6220213849483593      -0.5284668258428503
5.19E9                   -0.6641018223901823      -0.4728691015489626
5.22E9                   -0.7011868586469469      -0.41396635590317343
5.25E9                   -0.7330211180564736      -0.35220564975163804
5.28E9                   -0.759389106571508       -0.2880533709645547
5.31E9                   -0.7801166364798576      -0.221991677644093
5.34E9                   -0.7950719282833255      -0.1545148398363749
5.37E9                   -0.8041663837263955      -0.08612551307329205
5.4E9                    -0.8073550296762996      -0.017330975919484286
5.43E9                   -0.8046366365862959      0.0513606391632872
5.46E9                   -0.7960535171616416      0.11944409572119162
5.49E9                   -0.7816910110129316      0.18642076047758926
5.52E9                   -0.7616766605805441      0.25180224522717204
5.55E9                   -0.736179083368637       0.3151139605986571
5.58E9                   -0.7054065462021079      0.3758985574946263
5.61E9                   -0.6696052489742801      0.4337192305965319
5.64E9                   -0.6290573282772816      0.4881628570299983
5.67E9                   -0.5840785953219247      0.5388429426990712
5.7E9                    -0.5350160273059297      0.5854023496916518
5.73E9                   -0.4822450364112079      0.6275157807618122
5.76E9                   -0.4261665445514501      0.6648920016940081
5.79E9                   -0.3672038937870042      0.6972757884258227
5.82E9                   -0.30579962112495074     0.7244495916907523
5.85E9                   -0.24241212337539528     0.7462349156300679
5.88E9                   -0.17751223424533347     0.7624934078849306
5.91E9                   -0.11157973422405708     0.7731276575809144
5.94E9                   -0.045099814337307545    0.7780816963673182
5.97E9                   0.021440482917150484     0.7773411976127077
6.0E9                    0.08755581963945858      0.7709333705722973
