% Model:              three_layers reality at 0.1mm.mph
% Version:            COMSOL 5.6.0.280
% Date:               Feb 23 2022, 16:04
% Table:              表格 1 - 全局计算 1
% freq (Hz)              real(emw.S11) (1)        imag(emw.S11) (1)
300000000                0.537731386258654        -0.739710319381177
330000000                0.467348875200339        -0.7842977304647425
360000000                0.393421147941854        -0.8223520454947654
390000000                0.316526998855111        -0.85358186778668
420000000                0.23727500279714775      -0.8777481757861821
450000000                0.15629734403994747      -0.8946671792315327
480000000                0.07424381930473115      -0.9042125456325913
510000000                -0.008224088502166183    -0.9063170372361491
540000000                -0.09043910870448056     -0.9009735770701255
570000000                -0.17173406305748318     -0.8882357523476281
600000000                -0.2514477135673661      -0.8682177584419529
630000000                -0.32893055105689833     -0.8410937861233535
660000000                -0.40355048867150756     -0.8070968559544837
690000000                -0.474698417641255       -0.7665171068712195
720000000                -0.5417935792019503      -0.7196995501695963
750000000                -0.6042887044973723      -0.6670413049341438
780000000                -0.6616748736789002      -0.608988336178937
810000000                -0.7134860455548442      -0.5460317228213573
840000000                -0.759303211366892       -0.47870348783065997
870000000                -0.7987581284648745      -0.40757202873515497
900000000                -0.8315365933618397      -0.3332371919245242
930000000                -0.8573812184339321      -0.25632503847365745
960000000                -0.8760936811258839      -0.1774823544001207
990000000                -0.8875364210457152      -0.0973709606054064
1020000000               -0.8916337660235952      -0.016661882131826556
1050000000               -0.8883724756270056      0.06397056350479732
1080000000               -0.8778016971123743      0.14385469618658095
1110000000               -0.8600323362879285      0.22232736005286627
1140000000               -0.8352358526959485      0.29873970576768877
1170000000               -0.8036424954942171      0.3724628090424896
1200000000               -0.7655390030054714      0.4428930685996946
1230000000               -0.7212657951645824      0.509457330047746
1260000000               -0.6712136935099757      0.5716176867975473
1290000000               -0.6158202085580008      0.6288759133633383
1320000000               -0.5555654384791298      0.6807774920766423
1350000000               -0.49096762642042996     0.7269151999640169
1380000000               -0.42257842662211015     0.7669322282583148
1410000000               -0.3509779310746051      0.8005248134669952
1440000000               -0.27676950961124475     0.8274443648761702
1470000000               -0.2005745163154555      0.8474990795622704
1500000000               -0.1230269149873255      0.8605550416622498
1530000000               -0.04476787459696468     0.8665368084711418
1560000000               0.0335596155554434       0.8654274908645734
1590000000               0.11131606404134882      0.8572683404697301
1620000000               0.1878706845630024       0.8421578601557761
1650000000               0.262606450874582        0.8202504582067216
1680000000               0.33492496176835956      0.7917546697179387
1710000000               0.404251081612728        0.7569309714684563
1740000000               0.47003732585790203      0.716089218627152
1770000000               0.5317679642637735       0.6695857334630402
1800000000               0.5889628186224919       0.6178200772170966
1830000000               0.641180734546865        0.5612315375537942
1860000000               0.6880227111564992       0.5002953639155677
1890000000               0.7291346748918003       0.43551878386764087
1920000000               0.764209887454053        0.36743683291381624
1950000000               0.7929909805495452       0.29660803016247655
1980000000               0.8152716132623361       0.22360993136202667
2010000000               0.8308977507803434       0.14903458974311587
2040000000               0.8397685661215079       0.07348395337077679
2070000000               0.8418369692350137       -0.002434775140701922
2100000000               0.8371097698370072       -0.07811379467654303
2130000000               0.8256474806180294       -0.15294936181362098
2.16E9                   0.8075637637816744       -0.22634643945631489
2.19E9                   0.783024513081125        -0.29772333820442765
2.22E9                   0.7522465417371287       -0.3665163539009213
2.25E9                   0.7154958138988121       -0.43218439024224176
2.28E9                   0.6730851247285798       -0.4942135078014384
2.31E9                   0.6253711362360911       -0.5521212488086621
2.34E9                   0.5727507651264301       -0.6054604792683513
2.37E9                   0.5156571208990822       -0.653822458551632
2.4E9                    0.45455542029788365      -0.6968390124973831
2.43E9                   0.3899393433285061       -0.7341840480259564
2.46E9                   0.3223279925995455       -0.7655749615969679
2.49E9                   0.25226313494225233      -0.7907744451837475
2.52E9                   0.18030614426228306      -0.8095927714933655
2.55E9                   0.10703422763222772      -0.8218902038038118
2.58E9                   0.03303590085201087      -0.8275790475866028
2.61E9                   -0.041094040387145904    -0.8266250261040894
2.64E9                   -0.1147597513711281      -0.8190478989466543
2.67E9                   -0.1873695533040637      -0.8049213911294096
2.7E9                    -0.25834102053174784     -0.7843725408022767
2.73E9                   -0.32710589767257103     -0.7575805542983816
2.76E9                   -0.39311483253693436     -0.7247752242127952
2.79E9                   -0.4558419143952856      -0.6862349411186354
2.82E9                   -0.5147890012057902      -0.642284316381174
2.85E9                   -0.5694898118694394      -0.5932914297300006
2.88E9                   -0.6195137542030351      -0.5396647167146317
2.91E9                   -0.6644694563473519      -0.48184951527400743
2.94E9                   -0.7040079688102666      -0.4203242955920236
2.97E9                   -0.7378256053624133      -0.35559660255812886
3.0E9                    -0.7656663936575989      -0.2881987446852363
3.03E9                   -0.7873241097393744      -0.21868326768241447
3.06E9                   -0.8026438749528968      -0.14761825423832056
3.09E9                   -0.8115232985384365      -0.07558249437951563
3.12E9                   -0.8139131543985588      -0.003160572865085873
3.15E9                   -0.8098175860921654      0.06906207903503213
3.18E9                   -0.7992938395835661      0.1405041195001823
3.21E9                   -0.7824515287526264      0.21059317294426916
3.24E9                   -0.7594514436550462      0.27877060190787345
3.27E9                   -0.730503916042882       0.34449613047990346
3.3E9                    -0.6958667603896393      0.40725227824455
3.33E9                   -0.6558428119799191      0.4665485658152725
3.36E9                   -0.61077708618838        0.5219254557578145
3.39E9                   -0.5610535856541813      0.5729579943397826
3.42E9                   -0.5070917847037288      0.6192591212080377
3.45E9                   -0.4493428235272953      0.6604826154369117
3.48E9                   -0.3882854486884393      0.6963256479334086
3.51E9                   -0.324421741615327       0.7265309124810388
3.54E9                   -0.2582726824272647      0.7508883117193513
3.57E9                   -0.19037360237401907     0.7692361804559502
3.6E9                    -0.12126958274665096     0.781462037497883
3.63E9                   -0.05151086038841442     0.7875028679220798
3.66E9                   0.018351701444374237     0.787344949322076
3.69E9                   0.08777102252508798      0.7810232462790385
3.72E9                   0.15620804858564413      0.7686204060867882
3.75E9                   0.22313578911678605      0.7502653951781697
3.78E9                   0.2880431208433409       0.7261318204600853
3.81E9                   0.35043833794793217      0.6964359832145122
3.84E9                   0.4098524426880678       0.6614347144507331
3.87E9                   0.46584218463508054      0.6214230371448863
3.9E9                    0.517992870343404        0.5767316904440472
3.93E9                   0.5659209735519698       0.527724533475641
3.96E9                   0.6092765741816625       0.47479582562194267
3.99E9                   0.6477456412480678       0.41836736243839656
4.02E9                   0.6810521533989381       0.35888543864460526
4.05E9                   0.7089600284930587       0.296817614269927
4.08E9                   0.7312748170920955       0.2326492763549712
4.11E9                   0.7478451092548405       0.16688001038909853
4.14E9                   0.7585636099939891       0.10001981650811596
4.17E9                   0.7633678531288162       0.0325852201559452
4.2E9                    0.7622405414997346       -0.03490466745644866
4.23E9                   0.7552095185025576       -0.10193208675261067
4.26E9                   0.7423473880308393       -0.16798452208636983
4.29E9                   0.7237708054095041       -0.23255851779866454
4.32E9                   0.6996394609024883       -0.29516339797155305
4.35E9                   0.6701547720594025       -0.35532487672811297
4.38E9                   0.6355582943067593       -0.41258854806276263
4.41E9                   0.5961298539458477       -0.4665232414671433
4.44E9                   0.5521854055720218       -0.5167242248152855
4.47E9                   0.5040746175767596       -0.5628162303538121
4.5E9                    0.45217819386648783      -0.604456275778836
4.53E9                   0.39690494615252947      -0.6413362506628251
4.56E9                   0.3386886378553303       -0.6731852394622666
4.59E9                   0.2779846268280419       -0.6997715557476671
4.62E9                   0.21526633876819157      -0.720904467913365
4.65E9                   0.15102160537876302      -0.7364356036642236
4.68E9                   0.08574890042706347      -0.7462600277835859
4.71E9                   0.01995350266406124      -0.7503169932153663
4.74E9                   -0.045856391446901235    -0.7485903673658604
4.77E9                   -0.11117358737124708     -0.7411087329246844
4.8E9                    -0.17549582817547016     -0.7279451565729326
4.83E9                   -0.23832972582431788     -0.7092166127049891
4.86E9                   -0.2991946586442338      -0.6850830464492733
4.89E9                   -0.3576265945188146      -0.6557460634313172
4.92E9                   -0.41318179012118944     -0.6214472431549212
4.95E9                   -0.4654403121764933      -0.5824660867141479
4.98E9                   -0.5140093288009412      -0.5391176247980732
5.01E9                   -0.5585261274902912      -0.4917497253785529
5.04E9                   -0.5986608297569651      -0.44074014945307155
5.07E9                   -0.6341187885423092      -0.38649340570332047
5.1E9                    -0.6646426700329644      -0.3294374497237875
5.13E9                   -0.6900142321654401      -0.27002026136836704
5.16E9                   -0.7100558140203767      -0.20870631781840687
5.19E9                   -0.7246315417867265      -0.1459729663677389
5.22E9                   -0.7336482407435343      -0.08230669633026007
5.25E9                   -0.737056026323293       -0.018199318114347534
5.28E9                   -0.7348485401030489      0.04585592302489
5.31E9                   -0.7270628044616257      0.1093682491524876
5.34E9                   -0.713778690850766       0.17185320517718597
5.37E9                   -0.6951180221833527      0.23283640761670574
5.4E9                    -0.6712433485315992      0.29185714309837746
5.43E9                   -0.6423564402412544      0.348471796102892
5.46E9                   -0.6086965338744181      0.4022571046480874
5.49E9                   -0.5705383499494936      0.45281325182046717
5.52E9                   -0.5281898848841785      0.4997667985864587
5.55E9                   -0.48198996844026276     0.5427734525520104
5.58E9                   -0.43230557499678074     0.581520652498229
5.61E9                   -0.3795288822494863      0.6157299338806609
5.64E9                   -0.3240740833328407      0.6451590293043832
5.67E9                   -0.2663739764550453      0.6696036529746305
5.7E9                    -0.2068763768712817      0.6888989223650454
5.73E9                   -0.14604041470887416     0.702920385515613
5.76E9                   -0.08433279159236609     0.711584647325542
5.79E9                   -0.02222406318344046     0.7148496159652891
5.82E9                   0.03981500571502128      0.7127144103310212
5.85E9                   0.10131699423029145      0.7052189729076342
5.88E9                   0.16182128865074485      0.6924434190985449
5.91E9                   0.220877464223177        0.6745071328645292
5.94E9                   0.27804858549388156      0.6515676009756857
5.97E9                   0.3329144090402489       0.6238189717310388
6.0E9                    0.385074457345176        0.5914903288292015
