% Model:              three_layers reality at 0.1mm.mph
% Version:            COMSOL 5.6.0.280
% Date:               Feb 25 2022, 17:44
% Table:              表格 1 - 全局计算 1
% freq (Hz)              real(emw.S11) (1)        imag(emw.S11) (1)
300000000                0.5883559340406768       -0.7716877870630345
330000000                0.5156291014710899       -0.8215720863112529
360000000                0.43875104632617656      -0.8646841737226434
390000000                0.3583743223691285       -0.9006616861544091
420000000                0.2751349072288397       -0.9292273451486791
450000000                0.18970576580387155      -0.9501538758046872
480000000                0.10277951850858891      -0.9632743149342853
510000000                0.015062846711425238     -0.9684840132033472
540000000                -0.0727292833420174      -0.9657420705839794
570000000                -0.15987953155456616     -0.9550721996957372
600000000                -0.24567418139788214     -0.9365630103649831
630000000                -0.32940916956558175     -0.9103677102798795
660000000                -0.41039609629034707     -0.8767032191893511
690000000                -0.48796815718236364     -0.8358486980572897
720000000                -0.5614859421744224      -0.7881434992193092
750000000                -0.6303430408944728      -0.7339845495711588
780000000                -0.6939713988935229      -0.6738231839055526
810000000                -0.7518463663018787      -0.6081614530068438
840000000                -0.803491384988779       -0.537547936004972
870000000                -0.8484822614695626      -0.4625730944799621
900000000                -0.8864509777278308      -0.38386421017990435
930000000                -0.9170889956215812      -0.3020799554766421
960000000                -0.9401500169854233      -0.2179046494963758
990000000                -0.955452166608721       -0.13204225866054017
1020000000               -0.9628795728653672      -0.04521020331762311
1050000000               -0.9623833277612658      0.0418669652447839
1080000000               -0.9539818156522923      0.12846395022506346
1110000000               -0.937760407894049       0.21386109051692972
1140000000               -0.9138705286040434      0.29735066952106937
1170000000               -0.8825281044138262      0.37824308670258877
1200000000               -0.8440114186989629      0.4558728276535612
1230000000               -0.7986583978677496      0.5296041721732321
1260000000               -0.7468633639397967      0.5988365841727082
1290000000               -0.6890732931561039      0.66300973237409
1320000000               -0.6257836263932977      0.7216080948255151
1350000000               -0.5575336800451772      0.7741651087427446
1380000000               -0.484901711051901       0.820266830979504
1410000000               -0.4084996907807783      0.8595550833045533
1440000000               -0.3289678449260469      0.8917300620584702
1470000000               -0.24696901674145844     0.9165523991211864
1500000000               -0.1631829112976261      0.9338446672944539
1530000000               -0.0783002764932979      0.943492329970119
1560000000               0.0069829240970282315    0.9454441402869691
1590000000               0.0919712945976638       0.9397120007741222
1620000000               0.17597569674900626      0.9263702991405802
1650000000               0.25831880071024343      0.9055547403645126
1680000000               0.3383404536825687       0.8774606987394924
1710000000               0.4154028280859528       0.8423411168259988
1740000000               0.4888953141276652       0.800503980680902
1770000000               0.5582391261253833       0.7523094027105834
1800000000               0.6228915957016984       0.6981663448499875
1830000000               0.6823501282108279       0.6385290159121171
1860000000               0.7361558031493914       0.5738929773016209
1890000000               0.7838966022222658       0.5047909914382509
1920000000               0.8252102517496276       0.43178864732868183
1950000000               0.8597866692785385       0.3554797972241723
1980000000               0.8873700067797995       0.2764818376240026
2010000000               0.9077602848418164       0.19543086788744582
2040000000               0.9208146150443007       0.1129767580709487
2070000000               0.9264480089699205       0.02977815769404224
2100000000               0.9246337744294053       -0.0535025236826021
2130000000               0.9154035011253847       -0.13620413427826503
2.16E9                   0.8988466394523581       -0.2176717668073326
2.19E9                   0.8751096777147865       -0.2972616853576352
2.22E9                   0.8443949245522401       -0.3743461646475301
2.25E9                   0.8069589047538742       -0.44831821455939924
2.28E9                   0.7631103779312483       -0.5185961643079345
2.31E9                   0.7132079901867094       -0.584628082147108
2.34E9                   0.6576575689429508       -0.6458960081226872
2.37E9                   0.596909069414503        -0.7019199793362241
2.4E9                    0.5314531769946449       -0.7522618278619206
2.43E9                   0.46181756400957996      -0.7965287279427042
2.46E9                   0.3885627910556293       -0.8343764600679174
2.49E9                   0.3122778403785425       -0.8655123384311347
2.52E9                   0.2335752798646052       -0.8896977173565989
2.55E9                   0.1530860972025547       -0.9067499605399928
2.58E9                   0.07145431945567964      -0.9165437535330612
2.61E9                   -0.010668380550495016    -0.919011701396292
2.64E9                   -0.09262785771811473     -0.9141442900218142
2.67E9                   -0.17377230407078878     -0.9019894396366331
2.7E9                    -0.25345675152897157     -0.8826519233036412
2.73E9                   -0.3310475069641443      -0.856292790830024
2.76E9                   -0.4059267791671065      -0.8231287075541124
2.79E9                   -0.4774976005586995      -0.7834309574154489
2.82E9                   -0.5451889465759322      -0.7375238668602605
2.85E9                   -0.6084608402557895      -0.6857825330753002
2.88E9                   -0.6668092336960906      -0.6286298748733794
2.91E9                   -0.7197705235339349      -0.5665331007450225
2.94E9                   -0.7669256277971894      -0.49999970310335123
2.97E9                   -0.8079035942225545      -0.4295730716804001
3.0E9                    -0.8423847296107285      -0.355827795915905
3.03E9                   -0.8701032421820003      -0.27936471124074286
3.06E9                   -0.8908493881743511      -0.2008057356569251
3.09E9                   -0.9044711115927968      -0.1207885419970264
3.12E9                   -0.9108751666649273      -0.03996111247593466
3.15E9                   -0.9100277151068558      0.04102377595011831
3.18E9                   -0.9019543943003602      0.1215140842063211
3.21E9                   -0.8867398579046267      0.20086400985621244
3.24E9                   -0.86452679601482        0.2784393998328042
3.27E9                   -0.8355144478357519      0.35362302589699546
3.3E9                    -0.7999566254012719      0.42581967341793164
3.33E9                   -0.7581592721096011      0.49446099660580495
3.36E9                   -0.7104775845301576      0.5590100967327979
3.39E9                   -0.6573127303181572      0.6189657831032159
3.42E9                   -0.5991081986289674      0.6738664811746752
3.45E9                   -0.5363458227419033      0.7232937562570059
3.48E9                   -0.46954151740772904     0.7668754258832877
3.51E9                   -0.399240775174563       0.8042882393050791
3.54E9                   -0.32601396799532295     0.8352601071371835
3.57E9                   -0.2504515008639201      0.8595718699347746
3.6E9                    -0.17315886476517975     0.877058599547596
3.63E9                   -0.09475163544088012     0.8876104326299864
3.66E9                   -0.015850463240966128    0.8911729407298226
3.69E9                   0.0629239029715226       0.8877470461326677
3.72E9                   0.14095551781147275      0.8773884966167446
3.75E9                   0.2176380307266655       0.8602069152363442
3.78E9                   0.2923793331892485       0.8363644430379154
3.81E9                   0.3646060312379099       0.8060739936043533
3.84E9                   0.43376771433394024      0.7695971387375992
3.87E9                   0.4993409923810299       0.7272416452683141
3.9E9                    0.5608332722335769       0.6793586846585757
3.93E9                   0.6177862449599097       0.6263397402375208
3.96E9                   0.6697790555528013       0.5686132416977389
3.99E9                   0.7164311293769224       0.5066409627111631
4.02E9                   0.7574046354621686       0.4409142235285514
4.05E9                   0.792406575562794        0.37194994483833493
4.08E9                   0.8211904991094173       0.30028659969455523
4.11E9                   0.843557855331175        0.22648010542895616
4.14E9                   0.8593590013560477       0.15109968811057606
4.17E9                   0.868493886980858        0.07472374024225562
4.2E9                    0.87091243208124         -0.0020643174675400067
4.23E9                   0.8666146041763888       -0.07868016376571646
4.26E9                   0.8556501957153305       -0.15454268579288563
4.29E9                   0.8381182969365671       -0.229078054861528
4.32E9                   0.81416646205866         -0.3017237487368686
4.35E9                   0.783989571634184        -0.37193249786054516
4.38E9                   0.7478283985852503       -0.43917613498724645
4.41E9                   0.7059678864195948       -0.5029493322184143
4.44E9                   0.6587351450373546       -0.5627732128057634
4.47E9                   0.6064971644501835       -0.6181988243498828
4.5E9                    0.549658242915975        -0.6688104550681113
4.53E9                   0.48865712626620916      -0.7142287669814501
4.56E9                   0.42396385966833994      -0.7541137129075481
4.59E9                   0.3560763618670322       -0.7881671990515376
4.62E9                   0.2855167417002109       -0.8161354547462406
4.65E9                   0.21282738651840527      -0.8378110741665316
4.68E9                   0.1385668594592147       -0.8530347017600548
4.71E9                   0.06330564700885387      -0.8616963417173085
4.74E9                   -0.012378201318784221    -0.863736281005444
4.77E9                   -0.08790350190307716     -0.8591456229801704
4.8E9                    -0.16269040026876525     -0.8479664333239161
4.83E9                   -0.23616483938422608     -0.8302915011152499
4.86E9                   -0.3077630066971675      -0.8062637160126107
4.89E9                   -0.37693573341076675     -0.7760750597539215
4.92E9                   -0.44315281633053055     -0.739965208459155
4.95E9                   -0.5059072274439415      -0.6982197432744136
4.98E9                   -0.5647191718393795      -0.6511679708438239
5.01E9                   -0.6191399511051913      -0.5991803613767702
5.04E9                   -0.6687555881593756      -0.5426656196792011
5.07E9                   -0.7131901708122383      -0.48206741217483845
5.1E9                    -0.7521088741177115      -0.4178607808085625
5.13E9                   -0.7852206271487547      -0.35054828133341387
5.16E9                   -0.8122803968042569      -0.2806558891258319
5.19E9                   -0.8330910703830474      -0.20872871813622929
5.22E9                   -0.8475049274697544      -0.13532659787630244
5.25E9                   -0.8554246986358813      -0.061019548951411866
5.28E9                   -0.8568042112297167      0.013616808450706869
5.31E9                   -0.8516486207083883      0.08800588299548594
5.34E9                   -0.8400142219549243      0.1615747476338988
5.37E9                   -0.8220078322579877      0.23375874716042944
5.4E9                    -0.7977857393477117      0.30400603511090935
5.43E9                   -0.7675522150064896      0.37178199024386144
5.46E9                   -0.7315576055851332      0.4365734590980539
5.49E9                   -0.6900960226924625      0.4978927725836331
5.52E9                   -0.6435026681792195      0.5552814897177669
5.55E9                   -0.592150835826006       0.6083138304688248
5.58E9                   -0.5364486376051439      0.6565997699432551
5.61E9                   -0.476835504107531       0.6997877782155618
5.64E9                   -0.4137785060537638      0.7375672019075329
5.67E9                   -0.3477685361470615      0.7696702933883439
5.7E9                    -0.27931637911284907     0.7958738977141655
5.73E9                   -0.2089486861557223      0.8160008039322273
5.76E9                   -0.13720386419822805     0.829920756526008
5.79E9                   -0.0646278948203431      0.8375511099814101
5.82E9                   0.008229887884335697     0.8388571029935442
5.85E9                   0.08082101387832985      0.8338517345563595
5.88E9                   0.15260203052026694      0.8225952413837517
5.91E9                   0.2230385368651474       0.8051941972776702
5.94E9                   0.29160905602926784      0.7818002709242539
5.97E9                   0.3578087210968754       0.7526086840438551
6.0E9                    0.4211527652764593       0.7178564074132243
