% Model:              three_layers reality at 0.1mm.mph
% Version:            COMSOL 5.6.0.280
% Date:               Mar 3 2022, 11:27
% Table:              表格 1 - 全局计算 1
% freq (Hz)              real(emw.S11) (1)        imag(emw.S11) (1)
300000000                0.6195955778389994       -0.7478121927960149
330000000                0.5522173366559499       -0.7984525548395041
360000000                0.4808273183309892       -0.8430725624132368
390000000                0.40592409702132226      -0.8813691223527391
420000000                0.3280685057004588       -0.9130609512474814
450000000                0.24783362206218662      -0.9379219347399984
480000000                0.16581209091031185      -0.9557749776602877
510000000                0.08261030573450495      -0.9664942795926346
540000000                -0.0011559452117884561   -0.9700064298633864
570000000                -0.08486616476632972     -0.9662911660235161
600000000                -0.16789986496181122     -0.9553816942622201
630000000                -0.24964128077984615     -0.9373645774794671
660000000                -0.32948404906915996     -0.9123791978032877
690000000                -0.4068358171475981      -0.8806168009717166
720000000                -0.48112274589921705     -0.8423191324931107
750000000                -0.551793875859001       -0.7977766766903494
780000000                -0.6183253193401552      -0.7473265139134788
810000000                -0.680224249486646       -0.6913498117330668
840000000                -0.737032651875381       -0.6302689709910334
870000000                -0.7883308112290823      -0.5645444480436649
900000000                -0.833740504045149       -0.49467127886924533
930000000                -0.8729278720321556      -0.42117533230938015
960000000                -0.9056059537885978      -0.3446093210542968
990000000                -0.931536852803585       -0.26554860435411626
1020000000               -0.9505335260730968      -0.18458681366069674
1050000000               -0.9624611779658312      -0.10233133691735884
1080000000               -0.9672382483224555      -0.019398699015969495
1110000000               -0.9648369877196394      0.06359012684232274
1140000000               -0.9552836151323607      0.14601443720146848
1170000000               -0.9386580577022615      0.22725850918957038
1200000000               -0.9150932753430482      0.3067162660665168
1230000000               -0.8847741766114727      0.38379586021872586
1260000000               -0.8479361356070131      0.457924137592525
1290000000               -0.804863122985763       0.5285509481445821
1320000000               -0.7558854672074118      0.5951532689990513
1350000000               -0.7013772655266285      0.6572391077981313
1380000000               -0.6417534663624332      0.7143511570885164
1410000000               -0.5774666477213358      0.7660701719171938
1440000000               -0.5090035184851835      0.8120180455004742
1470000000               -0.43688117143562555     0.8518605606453037
1500000000               -0.36164311843616787     0.8853097976084512
1530000000               -0.28385513961402625     0.912126181700867
1560000000               -0.2041009801812953      0.9321201569957115
1590000000               -0.12297792806897707     0.9451534760413192
1620000000               -0.0410923076985938      0.9511400979845915
1650000000               0.04094507637628802      0.9500466911735107
1680000000               0.12252351018790844      0.9418927389761914
1710000000               0.20303692197112008      0.926750250850968
1740000000               0.28188838050981263      0.9047430834565665
1770000000               0.358494507072283        0.8760458795757444
1800000000               0.43228976942461816      0.8408826351290252
1830000000               0.5027306266625663       0.7995249074461546
1860000000               0.5692994961130895       0.752289679971812
1890000000               0.6315085143207235       0.6995369012154347
1920000000               0.6889030662035623       0.6416667176672566
1950000000               0.7410650584433196       0.579116422338095
1980000000               0.7876159150394355       0.5123571423249335
2010000000               0.8282192750366726       0.44189029044607414
2040000000               0.8625833747471217       0.36824380723216665
2070000000               0.8904630989249036       0.2919682210389036
2100000000               0.9116616878985703       0.2136325545062533
2130000000               0.9260320896773404       0.13382010726643687
2.16E9                   0.9334779488792567       0.05312414469317486
2.19E9                   0.9339542265638525       -0.027856476788007595
2.22E9                   0.9274674475013814       -0.1085217166777349
2.25E9                   0.9140755740527595       -0.18827475913420688
2.28E9                   0.8938875082114279       -0.26652639234736214
2.31E9                   0.8670622257532117       -0.34269932857920415
2.34E9                   0.8338075488976084       -0.41623243458187126
2.37E9                   0.7943785657646352       -0.4865848440538001
2.4E9                    0.7490757070359507       -0.5532399235417289
2.43E9                   0.6982424911458751       -0.6157090653314505
2.46E9                   0.6422629507864426       -0.6735352799857245
2.49E9                   0.5815587538328535       -0.7262965617116923
2.52E9                   0.516586034364714        -0.7736089965276142
2.55E9                   0.4478319536495171       -0.8151295811525618
2.58E9                   0.37581102051333315      -0.8505587187256419
2.61E9                   0.30106121239408296      -0.8796423630381949
2.64E9                   0.22413994773397727      -0.9021737973854496
2.67E9                   0.1456199571811659       -0.9179950545404515
2.7E9                    0.06608508359217229      -0.9269979975356414
2.73E9                   -0.01387398149604362     -0.9291250761058557
2.76E9                   -0.09366402625240262     -0.924369753291677
2.79E9                   -0.17269370226916064     -0.9127765777696859
2.82E9                   -0.2503779337119987      -0.894440873920419
2.85E9                   -0.32614230616296197     -0.8695080329582376
2.88E9                   -0.39942738519073073     -0.8381724046528302
2.91E9                   -0.46969291982328687     -0.8006758013137972
2.94E9                   -0.5364218925684568      -0.7573056320945886
2.97E9                   -0.5991243838416956      -0.7083926877256674
3.0E9                    -0.6573412223923354      -0.6543085963238279
3.03E9                   -0.7106473951721178      -0.5954629717744079
3.06E9                   -0.7586551918563442      -0.5323002773162587
3.09E9                   -0.8010170607535008      -0.465296428635744
3.12E9                   -0.8374281545413758      -0.39495516281461523
3.15E9                   -0.8676285465715108      -0.32180420118697617
3.18E9                   -0.8914051007900092      -0.24639123625249845
3.21E9                   -0.9085929812291487      -0.1692797739339944
3.24E9                   -0.9190767897946606      -0.09104486415829642
3.27E9                   -0.9227913243061263      -0.012268753160172115
3.3E9                    -0.9197219517517641      0.06646350797052332
3.33E9                   -0.9099045950202662      0.14456846430198955
3.36E9                   -0.8934253344628262      0.2214686328267116
3.39E9                   -0.8704196288513608      0.29659681918942976
3.42E9                   -0.8410711633787117      0.36940034161972163
3.45E9                   -0.8056103352798524      0.4393451298473237
3.48E9                   -0.7643123907037029      0.5059196673560913
3.51E9                   -0.7174952289975849      0.5686387474918041
3.54E9                   -0.6655168933502671      0.6270470150799503
3.57E9                   -0.608772769068426       0.6807222675289685
3.6E9                    -0.5476925128534423      0.7292784915494481
3.63E9                   -0.48273673853420285     0.7723686138560302
3.66E9                   -0.4143934863667079      0.8096869468814442
3.69E9                   -0.3431745040571139      0.8409713133391945
3.72E9                   -0.2696113692948874      0.8660048358470949
3.75E9                   -0.19425148375203208     0.8846173809505574
3.78E9                   -0.11765396922228284     0.8966866493495813
3.81E9                   -0.040385497034759514    0.9021389067019128
3.84E9                   0.036983918381721104     0.9009493520143279
3.87E9                   0.11388513046794274      0.8931421229985794
3.9E9                    0.1897540450300948       0.8787899403238062
3.93E9                   0.2640357469932848       0.8580133953209114
3.96E9                   0.3361885389482886       0.8309798885265212
3.99E9                   0.40568786125645         0.7979022294001465
4.02E9                   0.4720300648121121       0.7590369106965668
4.05E9                   0.5347360095295592       0.7146820737953772
4.08E9                   0.5933544636091886       0.665175184015713
4.11E9                   0.6474652819524803       0.6108904365518107
4.14E9                   0.6966823445099533       0.5522359148805184
4.17E9                   0.7406562380147754       0.489650523601209
4.2E9                    0.7790766662681524       0.42360071767794144
4.23E9                   0.8116745749708851       0.35457705053327393
4.26E9                   0.8382239784410643       0.2830905637134774
4.29E9                   0.8585434762359331       0.20966904280830484
4.32E9                   0.8724974499232261       0.1348531653426403
4.35E9                   0.8799969325628805       0.059192567467684615
4.38E9                   0.8810001460826555       -0.01675814303413258
4.41E9                   0.8755127042526816       -0.09244340066679069
4.44E9                   0.8635874806941335       -0.16731069628782158
4.47E9                   0.8453241428542881       -0.24081456523604794
4.5E9                    0.8208683541298044       -0.31242052310194274
4.53E9                   0.7904106479035499       -0.3816089223973605
4.56E9                   0.7541849792889004       -0.4478787027586079
4.59E9                   0.7124669629991406       -0.5107510070705282
4.62E9                   0.6655718086327469       -0.5697726360805745
4.65E9                   0.6138519678013034       -0.6245193149075945
4.68E9                   0.5576945103776064       -0.6745987463568002
4.71E9                   0.497518249750962        -0.719653427946199
4.74E9                   0.4337706390882783       -0.7593632119473359
4.77E9                   0.3669244620310732       -0.7934475903133154
4.8E9                    0.2974743423285915       -0.821667688780649
4.83E9                   0.2259330973339907       -0.8438279566622839
4.86E9                   0.15282796102119747      -0.8597775405455237
4.89E9                   0.0786967026214569       -0.8694113317690615
4.92E9                   0.004083668171497301     -0.8726706790667826
4.95E9                   -0.0704642268942978      -0.8695437596904507
4.98E9                   -0.14440152463510234     -0.8600656045216241
5.01E9                   -0.2171882406540398      -0.8443177753209531
5.04E9                   -0.28829383852557416     -0.8224276952111182
5.07E9                   -0.3572011315810653      -0.7945676365452865
5.1E9                    -0.4234100814070786      -0.760953373476794
5.13E9                   -0.48644146297356805     -0.7218425098151766
5.16E9                   -0.5458403679669608      -0.677532495701165
5.19E9                   -0.6011795192652176      -0.6283583496396942
5.22E9                   -0.6520623720916743      -0.5746901045680839
5.25E9                   -0.6981259794897421      -0.5169299984671459
5.28E9                   -0.7390436020586062      -0.4555094310174573
5.31E9                   -0.7745270434093494      -0.39088570878538764
5.34E9                   -0.8043286941363577      -0.3235386024100498
5.37E9                   -0.8282432682121654      -0.25396674093407245
5.4E9                    -0.8461092172806736      -0.18268387064153013
5.43E9                   -0.8578098108805948      -0.11021500769366284
5.46E9                   -0.8632738736026513      -0.03709251597180201
5.49E9                   -0.8624761739766349      0.0361478575378791
5.52E9                   -0.8554374636373512      0.10897095691669866
5.55E9                   -0.8422241691690309      0.1808461687491855
5.58E9                   -0.822947742572853       0.2512513191368807
5.61E9                   -0.7977636795307937      0.3196764866975275
5.64E9                   -0.7668702172941126      0.3856277036960996
5.67E9                   -0.7305067258611493      0.44863052002950915
5.7E9                    -0.6889518069727132      0.5082334071093279
5.73E9                   -0.6425211157363011      0.564010979892948
5.76E9                   -0.5915649200148853      0.6155670157171612
5.79E9                   -0.5364654139797044      0.6625372481732692
5.82E9                   -0.4776338051854656      0.7045919137723035
5.85E9                   -0.4155071984171188      0.7414380304123486
5.88E9                   -0.3505453034158424      0.7728213897563491
5.91E9                   -0.2832269958352295      0.7985282502634644
5.94E9                   -0.21404676123087346     0.8183867224187149
5.97E9                   -0.14351105065033742     0.8322678416957441
6.0E9                    -0.07213457456721209     0.8400863273748684
