% Model:              three_layers reality at 0.1mm.mph
% Version:            COMSOL 5.6.0.280
% Date:               Mar 11 2022, 10:11
% Table:              表格 1 - 全局计算 1
% freq (Hz)              real(emw.S11) (1)        imag(emw.S11) (1)
300000000                0.6185386266674379       -0.7382730322456723
330000000                0.5450396196272523       -0.7927102898323803
360000000                0.4713405035288176       -0.8377553244792543
390000000                0.39665973825729317      -0.8750723089167018
420000000                0.31913781684122267      -0.9057927844432577
450000000                0.23934626528614072      -0.9297017664794691
480000000                0.1578735495106205       -0.9466333989036961
510000000                0.07532247681601145      -0.9564722881608614
540000000                -0.007695396633543972    -0.9591550550001907
570000000                -0.09056449419435655     -0.9546710873765705
600000000                -0.17266996456767744     -0.9430628320456255
630000000                -0.25340241217131654     -0.9244256380455176
660000000                -0.33216257922825215     -0.8989071632852323
690000000                -0.4083659452348327      -0.8667063556767323
720000000                -0.48144721031831994     -0.8280720212367346
750000000                -0.5508646283361552      -0.7833009934632265
780000000                -0.6161041567240956      -0.732735920449416
810000000                -0.6766833916956717      -0.6767626878993945
840000000                -0.7321552567904966      -0.6158075002413048
870000000                -0.7821114169540152      -0.5503336426051322
900000000                -0.826185390185334       -0.48083795057967116
930000000                -0.8640553323611618      -0.4078470159372125
960000000                -0.8954464729012722      -0.3319131591091866
990000000                -0.9201331818961207      -0.25361020067822015
1020000000               -0.9379406520073506      -0.17352906691767478
1050000000               -0.9487461822550062      -0.0922732642273939
1080000000               -0.9524800535635057      -0.010454259462319046
1110000000               -0.9491259897163916      0.0713131962124029
1140000000               -0.9387212006983878      0.1524157620541396
1170000000               -0.9213560090783357      0.23224618376422695
1200000000               -0.8971730636337082      0.31020791202476916
1230000000               -0.8663661476436731      0.3857196277315666
1260000000               -0.8291785930288467      0.4582196371037429
1290000000               -0.7859013145445819      0.5271701022482171
1320000000               -0.7368704814034365      0.5920610740822955
1350000000               -0.6824648464494882      0.6524142965308667
1380000000               -0.623102756378537       0.7077867523601424
1410000000               -0.5592388676210772      0.7577739249920337
1440000000               -0.4913605964081734      0.8020127512197842
1470000000               -0.41998433169340715     0.8401842443546226
1500000000               -0.345651442911404       0.8720157687756818
1530000000               -0.2689241143091379      0.8972829510695247
1560000000               -0.19038103969053743     0.9158112151593802
1590000000               -0.11061301179467603     0.9274769323681906
1620000000               -0.030218440676964067    0.9322081804704203
1650000000               0.05020116402332917      0.9299851087930474
1680000000               0.1300457124716001       0.9208399096193729
1710000000               0.20872102166665274      0.9048563990266523
1740000000               0.2856432362555676       0.882169213368373
1770000000               0.36024315142857355      0.852962630169781
1800000000               0.4319704057495802       0.8174690251205515
1830000000               0.5002975144050297       0.7759669791534652
1860000000               0.5647237141627385       0.7287790521433803
1890000000               0.6247785935541768       0.6762692416455438
1920000000               0.680025482938321        0.6188401475706901
1950000000               0.7300645818223352       0.556929865018617
1980000000               0.7745358022554285       0.4910086296559591
2010000000               0.8131213098921709       0.4215752408398773
2040000000               0.8455477458476303       0.3491532898573675
2070000000               0.8715881155622189       0.2742872207169011
2100000000               0.8910633325693063       0.1975382528119649
2130000000               0.9038434079936721       0.1194801947248215
2.16E9                   0.9098482787342963       0.04069517959992969
2.19E9                   0.9090482699516085       -0.0382306478717906
2.22E9                   0.9014641898029624       -0.11671146163659703
2.25E9                   0.8871670570183284       -0.19416607167142974
2.28E9                   0.8662774642438482       -0.270022197878843
2.31E9                   0.8389645825077935       -0.34372067098636
2.34E9                   0.8054448144637786       -0.4147195313095858
2.37E9                   0.7659801060623338       -0.4824979974099559
2.4E9                    0.7208759279488256       -0.5465602778015576
2.43E9                   0.6704789392269603       -0.6064391995984612
2.46E9                   0.6151743467782276       -0.6616996287802235
2.49E9                   0.5553829742479043       -0.7119416556936282
2.52E9                   0.491558056623418        -0.7568035172648706
2.55E9                   0.42418178123415057      -0.7959642242419033
2.58E9                   0.3537616054328204       -0.8291458606625746
2.61E9                   0.28082639442277557      -0.8561155280791563
2.64E9                   0.20592243139900968      -0.8766869233201903
2.67E9                   0.1296093489790831       -0.8907215597432308
2.7E9                    0.05245601109101461      -0.8981296559990217
2.73E9                   -0.02496364935373272     -0.8988707104302037
2.76E9                   -0.10207484121993389     -0.8929537570233225
2.79E9                   -0.1783061672178116      -0.8804372784199311
2.82E9                   -0.2530938877225168      -0.8614287476554158
2.85E9                   -0.32588615065540216     -0.8360837824493461
2.88E9                   -0.3961471373097496      -0.8046049129925539
2.91E9                   -0.4633610796831231      -0.7672399769029643
2.94E9                   -0.5270361122719668      -0.7242801614142972
2.97E9                   -0.586707928055411       -0.6760577144719153
3.0E9                    -0.6419432118571058      -0.6229433469526565
3.03E9                   -0.6923428270571663      -0.5653433482812253
3.06E9                   -0.7375447328806146      -0.503696438842287
3.09E9                   -0.7772266112118503      -0.43847038392405313
3.12E9                   -0.8111081836097919      -0.37015839577817883
3.15E9                   -0.8389532015668468      -0.29927535168430697
3.18E9                   -0.8605710951710179      -0.2263538580346065
3.21E9                   -0.8758182683277413      -0.15194019131853756
3.24E9                   -0.884599031477897       -0.07659014803884068
3.27E9                   -0.8868661657146494      -8.648363261097886E-4
3.3E9                    -0.8826211152761543      0.07467355756051632
3.33E9                   -0.8719138084808169      0.14946599477067873
3.36E9                   -0.8548421101569281      0.2229607683577871
3.39E9                   -0.8315509116672488      0.2946176143116372
3.42E9                   -0.8022308674768533      0.3639117175369394
3.45E9                   -0.7671167900857521      0.4303375820692399
3.48E9                   -0.7264857178047092      0.49341273633413646
3.51E9                   -0.6806546723844037      0.5526812457166795
3.54E9                   -0.6299781259561054      0.6077170064658654
3.57E9                   -0.5748451987563553      0.6581267971569539
3.6E9                    -0.5156766113808157      0.7035530657793225
3.63E9                   -0.4529214166229849      0.7436764333753954
3.66E9                   -0.3870535378025946      0.7782178972398935
3.69E9                   -0.3185681413025034      0.8069407196318505
3.72E9                   -0.24797787224326484     0.8296519903741078
3.75E9                   -0.17580898229136466     0.8462038546160552
3.78E9                   -0.10259737939827468     0.8564943993414051
3.81E9                   -0.02888462908547833     0.8604681948287392
3.84E9                   0.04478606307318938      0.8581164895874936
3.87E9                   0.11787385800745015      0.8494770595944893
3.9E9                    0.18984424925977061      0.8346337150729465
3.93E9                   0.2601729592188054       0.8137154705293845
3.96E9                   0.32834973658456373      0.7868953864389658
3.99E9                   0.39388202671796135      0.7543890938648858
4.02E9                   0.4562984879401324       0.7164530162233677
4.05E9                   0.5151523287261307       0.6733823051813451
4.08E9                   0.570024443152132        0.6255085100865269
4.11E9                   0.6205263248590733       0.5731970019461256
4.14E9                   0.6663027428235779       0.5168441736091346
4.17E9                   0.707034164352045        0.4568744380376741
4.2E9                    0.7424389125906576       0.3937370461504523
4.23E9                   0.7722750467429471       0.32790274581580353
4.26E9                   0.7963419538831069       0.2598603043549382
4.29E9                   0.8144816425251286       0.19011291792767235
4.32E9                   0.8265797297328885       0.11917453281953101
4.35E9                   0.8325661161380218       0.047566104234200594
4.38E9                   0.8324153456890926       -0.02418818127169652
4.41E9                   0.8261466493272348       -0.09556469415521171
4.44E9                   0.8138236734816495       -0.16604413615594887
4.47E9                   0.7955538955369374       -0.23511527581611458
4.5E9                    0.7714877295519802       -0.30227862083584034
4.53E9                   0.7418173269593134       -0.36705000220082085
4.56E9                   0.7067750788831177       -0.4289640447247166
4.59E9                   0.6666318292313087       -0.48757749827119246
4.62E9                   0.6216948104683717       -0.5424724044052123
4.65E9                   0.5723053169636064       -0.5932590739676442
4.68E9                   0.518836133522222        -0.6395788527847233
4.71E9                   0.4616887390233725       -0.6811066548463032
4.74E9                   0.4012903070997725       -0.7175532445890389
4.77E9                   0.33809052681964363      -0.7486672527143338
4.8E9                    0.27255826720046983      -0.7742369122371022
4.83E9                   0.20517810964498118      -0.794091503627661
4.86E9                   0.13644677259408092      -0.8081024996276117
4.89E9                   0.0668694533564647       -0.8161844016741342
4.92E9                   -0.0030438874622880975   -0.8182952614486333
4.95E9                   -0.07278227232991662     -0.8144368826766316
4.98E9                   -0.14183745653216775     -0.8046547004687996
5.01E9                   -0.209707653068931       -0.7890373379511528
5.04E9                   -0.2759012041995185      -0.7677158426836752
5.07E9                   -0.3399401711191324      -0.7408626082125365
5.1E9                    -0.4013638134388082      -0.708689989158885
5.13E9                   -0.45973193160981557     -0.6714486210331244
5.16E9                   -0.5146280461740694      -0.6294254589328255
5.19E9                   -0.5656623900428843      -0.5829415517206886
5.22E9                   -0.612474692063284       -0.5323495703306972
5.25E9                   -0.654736732592882       -0.47803111015093497
5.28E9                   -0.6921546537493838      -0.42039378830038726
5.31E9                   -0.7244710086690251      -0.3598681570717258
5.34E9                   -0.751466535002026       -0.29690445585874453
5.37E9                   -0.7729616391112168      -0.23196922502445433
5.4E9                    -0.7888175786923766      -0.16554180739550622
5.43E9                   -0.7989373339941195      -0.09811076467212115
5.46E9                   -0.8032661605926088      -0.03017023810267694
5.49E9                   -0.8017918203214818      0.03778371669571885
5.52E9                   -0.7945444904508806      0.10525679039562408
5.55E9                   -0.781596354791414       0.17176004641458784
5.58E9                   -0.7630608836812729      0.23681348456570983
5.61E9                   -0.7390918127098779      0.2999495150157469
5.64E9                   -0.709881832384389       0.36071631782053243
5.67E9                   -0.6756610023625524      0.4186810659030236
5.7E9                    -0.63669490455547        0.4734329911604876
5.73E9                   -0.5932825492271411      0.5245862750691427
5.76E9                   -0.5457540484037702      0.5717827450023192
5.79E9                   -0.49446807199695564     0.6146943570072214
5.82E9                   -0.43980910477496216     0.6530254452810779
5.85E9                   -0.3821845261379858      0.6865147196771846
5.88E9                   -0.32202153821797985     0.7149369956247721
5.91E9                   -0.25976396990077283     0.738104645371549
5.94E9                   -0.1958689845578867      0.7558687640563917
5.97E9                   -0.13080371772107338     0.7681200479180292
6.0E9                    -0.06504186925856513     0.7747893841324569
