% Model:              three_layers reality at 0.1mm.mph
% Version:            COMSOL 5.6.0.280
% Date:               Mar 8 2022, 20:29
% Table:              表格 1 - 全局计算 1
% freq (Hz)              real(emw.S11) (1)        imag(emw.S11) (1)
300000000                0.623408433888125        -0.7479144963812304
330000000                0.5536143446401719       -0.8001343460135438
360000000                0.48200763644850614      -0.8449247701880923
390000000                0.40688465026137327      -0.8833532572182947
420000000                0.3287955079568409       -0.9151479364987255
450000000                0.2483230701242114       -0.9400820544059647
480000000                0.1660610284106328       -0.957980124199321
510000000                0.08261850501608362      -0.9687174194735217
540000000                -0.0013862469433636448   -0.9722216146405191
570000000                -0.08533047131285781     -0.9684735574371232
600000000                -0.1685915868022887      -0.9575076038304238
630000000                -0.2505518770837396      -0.9394115199299619
660000000                -0.33060315528509054     -0.9143259556765941
690000000                -0.40815136515228273     -0.8824434981016609
720000000                -0.4826210834748015      -0.8440073131146996
750000000                -0.5534598869754569      -0.7993093879529197
780000000                -0.6201425497905888      -0.7486883885255552
810000000                -0.6821750375189357      -0.6925271490636857
840000000                -0.7390982664114715      -0.6312498135168526
870000000                -0.7904915963636742      -0.565318652054313
900000000                -0.8359760308679318      -0.4952305769362386
930000000                -0.8752170970397032      -0.42151338588089776
960000000                -0.9079273826570229      -0.3447217626077332
990000000                -0.9338687092913718      -0.2654330669645903
1020000000               -0.9528539245907655      -0.184242947370012
1050000000               -0.9647482985568647      -0.10176081149179442
1080000000               -0.9694705129730518      -0.018605191574881327
1110000000               -0.9669932362816086      0.06460095865048686
1140000000               -0.9573432796258978      0.14723499751694208
1170000000               -0.9406013334164822      0.22867932142974548
1200000000               -0.9169012872908578      0.30832604549329723
1230000000               -0.8864291398710166      0.3855816011922877
1260000000               -0.8494215080627825      0.4598712153124964
1290000000               -0.8061637491403325      0.5306432339873256
1320000000               -0.7569877117668821      0.5973732586660273
1350000000               -0.702269135455484       0.6595680615467652
1380000000               -0.6424247203125515      0.7167692508753574
1410000000               -0.5779088918062784      0.768556658304318
1440000000               -0.509210287580288       0.8145514229937867
1470000000               -0.43684799485618975     0.854418750497389
1500000000               -0.36136756987549296     0.8878703260855803
1530000000               -0.2833368704808063      0.9146663667705642
1560000000               -0.20334173586465898     0.9346172978621518
1590000000               -0.12198154732898558     0.9475850438033002
1620000000               -0.03986470450830684     0.953483926054995
1650000000               0.04239594771863917      0.952281163744231
1680000000               0.12418770738095208      0.9439969761031961
1710000000               0.2049025832945265       0.9287042885269843
1740000000               0.2839418096087748       0.9065280472885912
1770000000               0.36072027336043533      0.8776441505507683
1800000000               0.4346708231106682       0.8422780061539363
1830000000               0.5052484277526162       0.8007027293299107
1860000000               0.5719341563283863       0.7532369956640621
1890000000               0.6342389508344447       0.7002425671707146
1920000000               0.6917071661560414       0.6421215112460419
1950000000               0.7439198527679203       0.5793131344618965
1980000000               0.7904977603987288       0.5122906545014501
2010000000               0.8311040425311141       0.44155763541947596
2040000000               0.865446643743153        0.36764421291694926
2070000000               0.8932803547475032       0.29110313700154955
2100000000               0.9144085216324026       0.21250566100221044
2130000000               0.9286843986466664       0.13243730660101524
2.16E9                   0.9360121362877486       0.05149353464334499
2.19E9                   0.9363473985878148       -0.029724646884272257
2.22E9                   0.9296976064598553       -0.11061510722009651
2.25E9                   0.916121806125608        -0.19057901844989275
2.28E9                   0.8957301642840094       -0.2690252510912232
2.31E9                   0.8686830941914793       -0.34537470959323824
2.34E9                   0.8351900190513519       -0.41906457761647337
2.37E9                   0.7955077813680792       -0.48955244423896604
2.4E9                    0.7499387087114464       -0.5563202831154305
2.43E9                   0.6988283476396543       -0.6188782577623325
2.46E9                   0.6425628782729991       -0.6767683267446859
2.49E9                   0.5815662225887825       -0.7295676218845277
2.52E9                   0.5162968609596661       -0.7768915703056453
2.55E9                   0.44724437552563184      -0.818396727783102
2.58E9                   0.37492574778497423      -0.8537832883487729
2.61E9                   0.29988145160929         -0.8827972384404577
2.64E9                   0.22267139337377737      -0.9052321385669402
2.67E9                   0.1438707513712373       -0.9209305366520056
2.7E9                    0.06406574954377575      -0.9297850342743218
2.73E9                   -0.01615062372817455     -0.9317390254780741
2.76E9                   -0.09618295434820574     -0.9267871080551076
2.79E9                   -0.17543779327546752     -0.9149751457281667
2.82E9                   -0.2533280737162324      -0.8963999525731925
2.85E9                   -0.32927751120939325     -0.8712085803296564
2.88E9                   -0.40272493676879223     -0.8395972052678365
2.91E9                   -0.47312851668253875     -0.8018096246775042
2.94E9                   -0.5399698192907053      -0.7581353804313355
2.97E9                   -0.6027576953629465      -0.7089075299952565
3.0E9                    -0.6610319427837501      -0.6545000861366493
3.03E9                   -0.7143667288499937      -0.5953251472834675
3.06E9                   -0.7623737450945327      -0.5318297417048775
3.09E9                   -0.8047050714079771      -0.464492410154043
3.12E9                   -0.8410557278308393      -0.39381955362236204
3.15E9                   -0.8711658948150789      -0.3203415745399014
3.18E9                   -0.8948227850500843      -0.2446088415723931
3.21E9                   -0.9118621526566809      -0.16718750995997603
3.24E9                   -0.9221694287509554      -0.08865522991783598
3.27E9                   -0.9256804751387628      -0.009596777265210849
3.3E9                    -0.9223819512630667      0.06940035931963136
3.33E9                   -0.9123112927072182      0.14775039997066583
3.36E9                   -0.8955563026780071      0.22487366928592226
3.39E9                   -0.8722543611181326      0.300200931939406
3.42E9                   -0.8425912591789362      0.3731776344892634
3.45E9                   -0.8067996698098805      0.4432680207514015
3.48E9                   -0.7651572680479024      0.50995908945892
3.51E9                   -0.7179845174826305      0.5727643639990265
3.54E9                   -0.6656421418299714      0.6312274462413193
3.57E9                   -0.6085283030353279      0.6849253281567722
3.6E9                    -0.5470755095090156      0.7334714371946552
3.63E9                   -0.4817472800463802      0.7765183938021165
3.66E9                   -0.4130345906172604      0.8137604620767815
3.69E9                   -0.34145213264288277     0.8449356771529951
3.72E9                   -0.2675344124478466      0.8698276357410594
3.75E9                   -0.1918317221271483      0.8882669390587421
3.78E9                   -0.11490601285266938     0.900132279960663
3.81E9                   -0.037326701465726586    0.9053511688296911
3.84E9                   0.040333558189074026     0.9039002951562966
3.87E9                   0.11750310826389328      0.895805524276042
3.9E9                    0.19361549275794268      0.8811415311317985
3.93E9                   0.2681136052906071       0.8600310755314127
3.96E9                   0.34045374768217873      0.832643926174514
3.99E9                   0.41010956931435577      0.7991954436366088
4.02E9                   0.47657585772142286      0.7599448356968151
4.05E9                   0.5393721528645775       0.7151931015146964
4.08E9                   0.5980461602067892       0.6652806836606335
4.11E9                   0.6521769398448996       0.6105848494119765
4.14E9                   0.701377852809717        0.5515168234458736
4.17E9                   0.7452992477261585       0.48851869462701497
4.2E9                    0.7836308731771902       0.4220601194316406
4.23E9                   0.8161040022864392       0.35263484451358046
4.26E9                   0.8424932568533227       0.28075707165880315
4.29E9                   0.8626181195133523       0.20695768949032858
4.32E9                   0.8763441240583856       0.13178039795598762
4.35E9                   0.8835837166322738       0.055777752406125064
4.38E9                   0.8842967830129731       -0.020492844965403968
4.41E9                   0.8784908398979738       -0.0964731793954048
4.44E9                   0.8662208898963751       -0.1716082566053717
4.47E9                   0.8475889414496205       -0.24535030866450314
4.5E9                    0.8227431960393456       -0.3171627463592325
4.53E9                   0.791876906491956        -0.38652403152499687
4.56E9                   0.7552269120979394       -0.4529314421325623
4.59E9                   0.7130718586914604       -0.5159047026355293
4.62E9                   0.6657301148605879       -0.5749894518707649
4.65E9                   0.6135573983702258       -0.6297605219183156
4.68E9                   0.5569441301674275       -0.6798250022097584
4.71E9                   0.4963125358153743       -0.7248250655719881
4.74E9                   0.4321135166884741       -0.7644405350173163
4.77E9                   0.3648233146065266       -0.7983911730086551
4.8E9                    0.2949399950428916       -0.8264386771804081
4.83E9                   0.22297977403080155      -0.8483883692610871
4.86E9                   0.14947321485461984      -0.8640905654413351
4.89E9                   0.07496132092843162      -0.8734416182658784
4.92E9                   -8.44800118979805E-6     -0.8763846216664645
4.95E9                   -0.07488620787563179     -0.8729097724710884
4.98E9                   -0.149123701266136       -0.8630543839609026
5.01E9                   -0.22217833680479482     -0.8469025495563193
5.04E9                   -0.2935171861027323      -0.8245844576453639
5.07E9                   -0.36262090709419603     -0.7962753616172146
5.1E9                    -0.42898756267838767     -0.7621942123973214
5.13E9                   -0.4921363044342362      -0.7226019640553892
5.16E9                   -0.5516108924581075      -0.6777995661834337
5.19E9                   -0.6069830239737066      -0.6281256598010284
5.22E9                   -0.6578554459019718      -0.5739539959023506
5.25E9                   -0.7038648289326995      -0.5156905976025413
5.28E9                   -0.7446843830921236      -0.4537706878448682
5.31E9                   -0.7800261964204193      -0.38865540553352074
5.34E9                   -0.8096432798995284      -0.32082833361971935
5.37E9                   -0.8333313025659909      -0.25079186446031587
5.4E9                    -0.8509300024597062      -0.17906342948603096
5.43E9                   -0.8623242611494792      -0.10617162262119402
5.46E9                   -0.8674448326476795      -0.032652248850913335
5.49E9                   -0.8662687212028463      0.04095566950449891
5.52E9                   -0.8588192062796308      0.11411389539627692
5.55E9                   -0.8451655170595395      0.18628895578932442
5.58E9                   -0.8254221624577487      0.25695606429847045
5.61E9                   -0.7997479261299558      0.3256029573788882
5.64E9                   -0.7683445387988308      0.39173361584009286
5.67E9                   -0.7314550421822226      0.4548718462126397
5.7E9                    -0.6893618598441359      0.5145646987405155
5.73E9                   -0.6423845902949064      0.5703857008382257
5.76E9                   -0.5908775376919054      0.6219378851496704
5.79E9                   -0.5352269965307789      0.6688565907011661
5.82E9                   -0.47584830914957543     0.7108120152348033
5.85E9                   -0.41318271901256387     0.7475114973202717
5.88E9                   -0.3476940467442113      0.7787015097911119
5.91E9                   -0.2798652187198152      0.804169350560441
5.94E9                   -0.2101946786840376      0.8237445220408749
5.97E9                   -0.13919271179025403     0.8372997946882956
6.0E9                    -0.06737770862550577     0.8447519531327373
