% Model:              three_layers reality at 0.1mm.mph
% Version:            COMSOL 5.6.0.280
% Date:               Mar 3 2022, 10:51
% Table:              表格 1 - 全局计算 1
% freq (Hz)              real(emw.S11) (1)        imag(emw.S11) (1)
300000000                0.6011163556572889       -0.7296161912825468
330000000                0.5354454041050817       -0.7783644124501011
360000000                0.4659336090161894       -0.8212793664889553
390000000                0.39308611628504997      -0.8580557638311795
420000000                0.3174346743030812       -0.8884325863925568
450000000                0.2395331369508849       -0.9121952761909388
480000000                0.15995298229427882      -0.9291775240358213
510000000                0.07927881120241019      -0.9392626605820112
540000000                -0.0018961819356119848   -0.9423846494932087
570000000                -0.08297475811936046     -0.9385286817917061
600000000                -0.16336018407433814     -0.9277313710167725
630000000                -0.24246076103824646     -0.9100805503117648
660000000                -0.3196943046565851      -0.8857146741999125
690000000                -0.3944925456378557      -0.8548218306436042
720000000                -0.46630542267240166     -0.817638370519053
750000000                -0.5346052344652562      -0.7744471656365333
780000000                -0.5988906220521995      -0.7255755077469997
810000000                -0.6586903500076284      -0.6713926649821089
840000000                -0.7135668583930592      -0.6123071138749903
870000000                -0.7631195573264041      -0.5487634685333138
900000000                -0.806987838692135       -0.48123913041843736
930000000                -0.8448537809886223      -0.41024068513680867
960000000                -0.8764445262502539      -0.33630007389044936
990000000                -0.9015343097357145      -0.2599705704616241
1020000000               -0.919946126661157       -0.18182259510117205
1050000000               -0.9315530228080977      -0.10243939842309158
1080000000               -0.9362789988340419      -0.02241265015893746
1110000000               -0.9340995216521331      0.0576620326862306
1140000000               -0.9250416392678105      0.13718958216218213
1170000000               -0.9091836988638367      0.21557996491513431
1200000000               -0.8866546712970517      0.2922526208650876
1230000000               -0.8576330882739369      0.3666408205260554
1260000000               -0.8223456019773613      0.43819590604821274
1290000000               -0.7810651795573786      0.5063913836564672
1320000000               -0.7341089484256624      0.5707268350508553
1350000000               -0.6818357105038256      0.6307316183443034
1380000000               -0.624643146659073       0.6859683301637425
1410000000               -0.5629647345883431      0.7360360032211241
1440000000               -0.49726640576991205     0.7805730157959938
1470000000               -0.4280429686656071      0.8192596923412175
1500000000               -0.35581432763097376     0.8518205766545709
1530000000               -0.28112152728194406     0.8780263625619906
1560000000               -0.20452265425777574     0.8976954692110054
1590000000               -0.1265886281337185      0.91069525152797
1620000000               -0.04789891446571222     0.9169428390301322
1650000000               0.030962807462861088     0.9164055993173923
1680000000               0.10941298918127061      0.9091012253340761
1710000000               0.1868725374529035       0.8950974484194764
1740000000               0.2627710865360959       0.8745113819309712
1770000000               0.3365511872291778       0.8475085028550547
1800000000               0.4076723823864368       0.8143012814308206
1830000000               0.4756151400213021       0.7751474711778779
1860000000               0.5398846162169649       0.730348074094821
1890000000               0.6000142218511215       0.6802449978299555
1920000000               0.6555689686831088       0.6252184236184795
1950000000               0.7061485720200598       0.5656839057097841
1980000000               0.7513902893130151       0.5020892245365811
2010000000               0.7909714760204718       0.43491101720963066
2040000000               0.824611841817628        0.3646512107603972
2070000000               0.8520753929890432       0.2918332838182883
2100000000               0.8731720484322267       0.21699838424735357
2130000000               0.8877589193698289       0.14070133059267717
2.16E9                   0.895741245103783        0.06350652555089425
2.19E9                   0.8970729793142465       -0.014016189230085567
2.22E9                   0.8917570239338453       -0.09129570799487056
2.25E9                   0.8798451099121952       -0.16776383626224203
2.28E9                   0.8614373265098056       -0.24285943749262484
2.31E9                   0.8366813030862847       -0.3160325224978975
2.34E9                   0.8057710494934455       -0.3867482534547043
2.37E9                   0.768945463206271        -0.4544908352518355
2.4E9                    0.7264865129625427       -0.5187672678377475
2.43E9                   0.6787171100645392       -0.5791109339303613
2.46E9                   0.625998679289965        -0.6350849970074433
2.49E9                   0.5687284424572475       -0.6862855836527111
2.52E9                   0.5073364294969084       -0.732344722636737
2.55E9                   0.4422822364652687       -0.7729330104822036
2.58E9                   0.37405155868626905      -0.8077619723556959
2.61E9                   0.3031525376352921       -0.8365860927513534
2.64E9                   0.2301119689800354       -0.859204503620245
2.67E9                   0.15547141508213436      -0.8754623365777185
2.7E9                    0.07978324908815147      -0.8852517571292842
2.73E9                   0.0036066373377813933    -0.8885126936933769
2.76E9                   -0.07249654020324936     -0.885233255164812
2.79E9                   -0.14796582175512665     -0.8754498139185319
2.82E9                   -0.2222463187231658      -0.8592467285004569
2.85E9                   -0.2947928502453589      -0.836755691378122
2.88E9                   -0.3650740114139144      -0.8081547019945049
2.91E9                   -0.43257613293779235     -0.7736666766378526
2.94E9                   -0.49680709725031946     -0.7335577120742992
2.97E9                   -0.55729998126846        -0.6881350216990065
3.0E9                    -0.6136164991874913      -0.6377445635610507
3.03E9                   -0.6653502209098248      -0.582768380115929
3.06E9                   -0.7121295429347736      -0.5236216707478307
3.09E9                   -0.7536203898648627      -0.4607496198578339
3.12E9                   -0.7895286266755498      -0.39462400476006404
3.15E9                   -0.8196021635275246      -0.32573960981123595
3.18E9                   -0.8436327374602691      -0.25461047459071995
3.21E9                   -0.8614573577727138      -0.18176600536556972
3.24E9                   -0.8729594045374794      -0.10774698044116891
3.27E9                   -0.878069372658959       -0.0331014806026286
3.3E9                    -0.8767652567353249      0.04161922342601679
3.33E9                   -0.8690725749449744      0.1158647946002551
3.36E9                   -0.8550640331140182      0.18908993179170056
3.39E9                   -0.8348588330700993      0.2607584192881774
3.42E9                   -0.8086216322272826      0.33034709213090535
3.45E9                   -0.7765611641119001      0.3973496871653832
3.48E9                   -0.7389285323105375      0.4612805503982932
3.51E9                   -0.6960151927399143      0.5216781730656214
3.54E9                   -0.6481506416778346      0.5781085300046209
3.57E9                   -0.5956998291479318      0.6301681959807416
3.6E9                    -0.539060319316434       0.6774872175484585
3.63E9                   -0.47865922139102796     0.7197317202214886
3.66E9                   -0.41494991598263387     0.7566062331673937
3.69E9                   -0.34840860328700984     0.7878557159883628
3.72E9                   -0.2795307004050011      0.8132672747528708
3.75E9                   -0.2088271156565954      0.8326715570308441
3.78E9                   -0.13682042858982602     0.8459438179854136
3.81E9                   -0.06404100427424507     0.8530046521867254
3.84E9                   0.008976929147790714     0.8538203880069521
3.87E9                   0.08169921056772544      0.8484031438213656
3.9E9                    0.15359565481936654      0.836810547579586
3.93E9                   0.22414391123950958      0.8191451237795091
3.96E9                   0.29283324347134915      0.7955533544847372
3.99E9                   0.3591682023130918       0.7662244238315954
4.02E9                   0.4226721647555941       0.731388658302301
4.05E9                   0.4828907139538654       0.6913156777568453
4.08E9                   0.5393948369045944       0.6463122746747558
4.11E9                   0.5917839195851397       0.5967200405526313
4.14E9                   0.6396885214330563       0.5429127596095169
4.17E9                   0.6827729136769982       0.48529358999621997
4.2E9                    0.7207373673575941       0.4242920529093763
4.23E9                   0.7533201780057767       0.360360850221398
4.26E9                   0.780299414805231        0.293972531917408
4.29E9                   0.8014943830916611       0.22561603611362982
4.32E9                   0.816766790946727        0.15579312546395935
4.35E9                   0.8260216127983903       0.0850147450057347
4.38E9                   0.8292076454669104       0.013797326749134548
4.41E9                   0.8263177543298283       -0.05734093394263733
4.44E9                   0.8173888089941926       -0.12788380559825183
4.47E9                   0.8025013091927513       -0.19732072701704856
4.5E9                    0.7817787028460664       -0.26515046859425034
4.53E9                   0.7553863996915808       -0.3308847235409637
4.56E9                   0.7235304857786566       -0.3940516038766617
4.59E9                   0.6864561465189042       -0.4541990155758784
4.62E9                   0.6444458086420206       -0.5108978876098769
4.65E9                   0.5978170142915366       -0.5637452302614971
4.68E9                   0.5469200429802538       -0.6123669997292132
4.71E9                   0.492135299692942        -0.6564207475698809
4.74E9                   0.4338704891576775       -0.695598035952955
4.77E9                   0.372557597706075        -0.7296266019836649
4.8E9                    0.30864970512366163      -0.75827225648761
4.83E9                   0.24261764921788825      -0.7813405047975291
4.86E9                   0.17494656656983737      -0.7986778785424327
4.89E9                   0.10613233326040526      -0.8101729690201277
4.92E9                   0.03667793049660641      -0.8157571540681293
4.95E9                   -0.03291023915235574     -0.8154050121226549
4.98E9                   -0.10212605807009556     -0.809134419143319
5.01E9                   -0.17046739479037054     -0.7970063264861724
5.04E9                   -0.2374397720059138      -0.7791242204369541
5.07E9                   -0.30255997301738646     -0.7556332669263166
5.1E9                    -0.36535955872062653     -0.7267191477926817
5.13E9                   -0.4253882676925447      -0.6926065978639739
5.16E9                   -0.4822172732002784      -0.653557654921161
5.19E9                   -0.535442272538705       -0.6098696371597585
5.22E9                   -0.5846863860946976      -0.5618728648615489
5.25E9                   -0.6296028455721755      -0.5099281445985969
5.28E9                   -0.6698774529134657      -0.45442403512622304
5.31E9                   -0.7052307926079489      -0.3957739152361943
5.34E9                   -0.735420181540029       -0.334412874447679
5.37E9                   -0.7602413411772663      -0.2707944493600183
5.4E9                    -0.7795297786838017      -0.20538722995591174
5.43E9                   -0.793161865402804       -0.13867136257070625
5.46E9                   -0.8010556041576665      -0.07113497761455
5.49E9                   -0.8031710799992737      -0.0032705714210082104
5.52E9                   -0.7995105925188366      0.06442862807054556
5.55E9                   -0.7901184712580476      0.13147228240579845
5.58E9                   -0.7750805789685196      0.19737652177165793
5.61E9                   -0.7545235104214738      0.26166745507781064
5.64E9                   -0.7286134968619895      0.3238845855682753
5.67E9                   -0.6975550279154114      0.3835841087387678
5.7E9                    -0.6615892035948593      0.4403420712959067
5.73E9                   -0.6209918293279089      0.49375737114800816
5.76E9                   -0.5760712672504953      0.5434545786385082
5.79E9                   -0.5271660582108181      0.5890865588042937
5.82E9                   -0.47464233156370494     0.6303368740628897
5.85E9                   -0.41889102344047197     0.6669219477158957
5.88E9                   -0.3603249276408977      0.6985929714529361
5.91E9                   -0.29937560556329634     0.7251375441022728
5.94E9                   -0.23649018188263835     0.7463810333137184
5.97E9                   -0.17212805184728242     0.7621876553572426
6.0E9                    -0.10675752443515876     0.7724612706410627
