% Model:              three_layers reality at 0.1mm.mph
% Version:            COMSOL 5.6.0.280
% Date:               Mar 1 2022, 10:27
% Table:              表格 1 - 全局计算 1
% freq (Hz)              real(emw.S11) (1)        imag(emw.S11) (1)
300000000                0.5618795000064593       -0.7550315861532026
330000000                0.4903877637260493       -0.8018496925694077
360000000                0.4151554094744956       -0.8420249906497143
390000000                0.33677137505099997      -0.8752591542203038
420000000                0.25585320745006257      -0.9013041261230539
450000000                0.17304188121541897      -0.9199655750176184
480000000                0.08899642884190531      -0.9311056258493603
510000000                0.004388415747474817     -0.9346449245666559
540000000                -0.08010370760428193     -0.9305640742113189
570000000                -0.16380033635408184     -0.9189044637369008
600000000                -0.2460264832261494      -0.8997685030762744
630000000                -0.3261175470664986      -0.8733192737034143
660000000                -0.4034250292580046      -0.8397796031033533
690000000                -0.4773221487243607      -0.7994305728321659
720000000                -0.5472093037308532      -0.7526094725512068
750000000                -0.6125193280581285      -0.6997072166313512
780000000                -0.6727224900990117      -0.641165244006884
810000000                -0.7273311830864002      -0.577471927751767
840000000                -0.775904257428082       -0.5091585257845502
870000000                -0.8180509484974368      -0.43679470955421157
900000000                -0.8534343566250346      -0.36098371300174
930000000                -0.8817744406373719      -0.28235714878671286
960000000                -0.9028504911864957      -0.20156954326915308
990000000                -0.9165030558889873      -0.11929264575574679
1020000000               -0.9226352946554631      -0.0362095704349172
1050000000               -0.9212137503178796      0.04699116841479329
1080000000               -0.9122685265841683      0.12962166533899008
1110000000               -0.8958928727335365      0.21100061438519752
1140000000               -0.8722421815528731      0.2904592190530192
1170000000               -0.8415324142217173      0.3673469606664993
1200000000               -0.8040379725620671      0.44103716675941346
1230000000               -0.7600890457112426      0.5109323236552931
1260000000               -0.7100684638822696      0.5764690821784594
1290000000               -0.6544080975377607      0.6371229091644506
1320000000               -0.5935848445836338      0.6924123432818935
1350000000               -0.5281162521172432      0.7419028190136845
1380000000               -0.4585558222874062      0.7852100286146265
1410000000               -0.38548805395363817     0.8220027980656064
1440000000               -0.3095232730440728      0.8520054593286919
1470000000               -0.23129230528075473     0.8749997072125195
1500000000               -0.15144104436034755     0.8908259353733001
1530000000               -0.07062496792854418     0.8993840515464173
1560000000               0.010496347909324123     0.9006337775667643
1590000000               0.09126466722546614      0.8945944447118678
1620000000               0.17102844006582352      0.8813442993145735
1650000000               0.2491480125605401       0.8610193376377491
1680000000               0.32500066195540733      0.8338116923608759
1710000000               0.3979854203785316       0.7999675959736223
1740000000               0.4675276549659991       0.7597849487242782
1770000000               0.5330833756086569       0.7136105205912405
1800000000               0.594143245013462        0.6618368182599751
1830000000               0.6502362696334463       0.6048986488737499
1860000000               0.70093315298693         0.543269413220456
1890000000               0.7458492967113796       0.4774571609485344
1920000000               0.7846474373513843       0.40800044074412745
1950000000               0.8170399103363217       0.33546397786315973
1980000000               0.8427905353235027       0.2604342110922467
2010000000               0.8617161202822026       0.18351472011617026
2040000000               0.8736875845745211       0.10532157300120891
2070000000               0.8786307043102856       0.026478621136576893
2100000000               0.87652648583246         -0.05238723461111103
2130000000               0.8674111745369949       -0.13065078831706742
2.16E9                   0.8513759045568077       -0.20769327360731588
2.19E9                   0.8285659869345103       -0.28290710729728097
2.22E9                   0.799179815747791        -0.3557006373217238
2.25E9                   0.7634673408207597       -0.4255028941851642
2.28E9                   0.7217280192881849       -0.4917683094199415
2.31E9                   0.674308143777595        -0.5539812854796535
2.34E9                   0.6215975029156351       -0.6116603924527886
2.37E9                   0.5640254987960825       -0.664361904066968
2.4E9                    0.5020570727603673       -0.7116824880293513
2.43E9                   0.4361888903266163       -0.7532611715863974
2.46E9                   0.36694603070935444      -0.7887810305709899
2.49E9                   0.29487900017498386      -0.8179710960266715
2.52E9                   0.22056058605891665      -0.8406086553090479
2.55E9                   0.1445821300975391       -0.8565217165058331
2.58E9                   0.0675491096027443       -0.8655912238361414
2.61E9                   -0.009923811360093106    -0.8677527041040239
2.64E9                   -0.08721800613289848     -0.8629972203781939
2.67E9                   -0.16371617640620234     -0.8513716546324006
2.7E9                    -0.23880758689335047     -0.8329783963235958
2.73E9                   -0.31189318443594377     -0.8079745103518846
2.76E9                   -0.3823905733977533      -0.7765704348530686
2.79E9                   -0.44973882724252334     -0.7390282386282865
2.82E9                   -0.5134031136385477      -0.6956594561378001
2.85E9                   -0.5728791050108694      -0.646822513917169
2.88E9                   -0.6276971420417358      -0.5929197631629916
2.91E9                   -0.6774261149384423      -0.5343941368295522
2.94E9                   -0.7216770265295497      -0.47172545431661866
2.97E9                   -0.7601062021339777      -0.4054264019125001
3.0E9                    -0.7924181133514564      -0.33603822197715444
3.03E9                   -0.8183677861221739      -0.26412614831296305
3.06E9                   -0.8377627673414785      -0.19027462921800176
3.09E9                   -0.8504646290821033      -0.11508238295332758
3.12E9                   -0.8563899946693314      -0.0391573328480529
3.15E9                   -0.8555110764197839      0.03688852892732515
3.18E9                   -0.8478557206417223      0.11244429909637901
3.21E9                   -0.833506961252285       0.18690529284183854
3.24E9                   -0.8126020888548221      0.25967809646610324
3.27E9                   -0.7853312471662228      0.3301854961350432
3.3E9                    -0.751935573123824       0.3978712378750051
3.33E9                   -0.7127049007642476      0.46220457657411107
3.36E9                   -0.6679750522085566      0.5226845740884597
3.39E9                   -0.6181247419644766      0.5788441088122085
3.42E9                   -0.5635721234866348      0.6302535610641804
3.45E9                   -0.5047710101730755      0.6765241401280191
3.48E9                   -0.44220680662292944     0.7173108205910926
3.51E9                   -0.37639219070156194     0.7523148577209038
3.54E9                   -0.30786259246185566     0.7812858549743008
3.57E9                   -0.2371715215337057      0.8040233621761712
3.6E9                    -0.16488579994129415     0.8203779903516479
3.63E9                   -0.09158076027363454     0.8302520390957856
3.66E9                   -0.01783546951692756     0.8335996432411344
3.69E9                   0.05577196406374849      0.8304264563160635
3.72E9                   0.12866894905910106      0.8207888975680446
3.75E9                   0.20029278914548368      0.804792996788857
3.78E9                   0.27009484430997566      0.7825928772409259
3.81E9                   0.3375444472922487       0.7543889220835622
3.84E9                   0.402132558857892        0.7204256732164298
3.87E9                   0.46337515982679656      0.6809895111234254
3.9E9                    0.5208163924809937       0.6364061575790765
3.93E9                   0.5740314751815764       0.5870380289967158
3.96E9                   0.6226294170193605       0.5332814490378931
3.99E9                   0.6662555513024316       0.4755637106826658
4.02E9                   0.7045938896578239       0.41433996658117095
4.05E9                   0.7373692780594369       0.35008992611105283
4.08E9                   0.764349318530277        0.28331434872940203
4.11E9                   0.7853460116838242       0.21453134106887212
4.14E9                   0.8002170766901131       0.14427248490766406
4.17E9                   0.8088669157590606       0.07307883832639293
4.2E9                    0.8112472054902291       0.0014968606296150051
4.23E9                   0.8073571133445999       -0.06992568836273926
4.26E9                   0.7972431501156039       -0.1406438303910929
4.29E9                   0.7809986763918233       -0.21011939790593206
4.32E9                   0.7587630821592062       -0.27782498622438223
4.35E9                   0.73072065518895         -0.34324781200947174
4.38E9                   0.6970991482012132       -0.4058934646158397
4.41E9                   0.6581680496314957       -0.4652895357268825
4.44E9                   0.6142365601458384       -0.5209891087204682
4.47E9                   0.5656512776179244       -0.5725740842274578
4.5E9                    0.5127935966304088       -0.6196583142373852
4.53E9                   0.456076833980992        -0.6618905145901115
4.56E9                   0.3959430978431442       -0.6989569256600885
4.59E9                   0.3328599244760456       -0.7305836931423069
4.62E9                   0.26731671163306886      -0.7565389452474641
4.65E9                   0.19982098112205124      -0.7766345487686008
4.68E9                   0.13089450360122454      -0.7907275332948444
4.71E9                   0.06106931593157299      -0.7987211788717085
4.74E9                   -0.00911634327031976     -0.8005657653970264
4.77E9                   -0.07912215948119582     -0.7962589811204585
4.8E9                    -0.14840991124756703     -0.7858459829255879
4.83E9                   -0.21644766159439577     -0.7694190952719645
4.86E9                   -0.28271394374442205     -0.7471171309508319
4.89E9                   -0.34670190269811735     -0.7191243180895394
4.92E9                   -0.4079233444491925      -0.6856688250348015
4.95E9                   -0.4659126384880522      -0.6470208866957499
4.98E9                   -0.5202304184804654      -0.6034905503628342
5.01E9                   -0.5704670313821325      -0.5554250729802013
5.04E9                   -0.6162456958779294      -0.5032060128341188
5.07E9                   -0.6572253453363501      -0.44724606432934966
5.1E9                    -0.6931031457708562      -0.387985683291117
5.13E9                   -0.7236166916842937      -0.3258895419327992
5.16E9                   -0.7485458882173657      -0.26144283913858746
5.19E9                   -0.7677145238601446      -0.1951474781250763
5.22E9                   -0.7809915252469201      -0.12751811652385067
5.25E9                   -0.7882918702069175      -0.05907809818325149
5.28E9                   -0.7895771257787184      0.009644707966968523
5.31E9                   -0.7848555815310138      0.07812211611409425
5.34E9                   -0.7741819656388143      0.14582981718423751
5.37E9                   -0.7576567551940722      0.2122514940098407
5.4E9                    -0.7354251129211287      0.2768828058363008
5.43E9                   -0.7076754920092111      0.33923521016485464
5.46E9                   -0.6746379473614383      0.39883960967024923
5.49E9                   -0.6365821790719756      0.45524982416053883
5.52E9                   -0.5938153189241033      0.5080458895839327
5.55E9                   -0.546679458724972       0.5568371795206075
5.58E9                   -0.49554891366844844     0.6012653327499466
5.61E9                   -0.4408272156621085      0.6410069571018868
5.64E9                   -0.382943840227253       0.6757760680873733
5.67E9                   -0.3223506856246847      0.7053262133858795
5.7E9                    -0.25951834203749125     0.7294522345825292
5.73E9                   -0.19493220813270806     0.7479916281309733
5.76E9                   -0.12908852534268275     0.7608254886454117
5.79E9                   -0.06249040016072254     0.7678790442715507
5.82E9                   0.0043561303159895814    0.7691218163689744
5.85E9                   0.07094595881832398      0.7645674447248181
5.88E9                   0.13677868599930817      0.7542732122261163
5.91E9                   0.20136231859317189      0.7383392853640238
5.94E9                   0.2642168867464676       0.7169076696400376
5.97E9                   0.3248779670242341       0.6901608699298338
6.0E9                    0.3829000837989163       0.6583202471024153
