% Model:              three_layers reality at 0.1mm.mph
% Version:            COMSOL 5.6.0.280
% Date:               Mar 1 2022, 10:28
% Table:              表格 1 - 全局计算 1
% freq (Hz)              real(emw.S11) (1)        imag(emw.S11) (1)
300000000                0.5432609628396484       -0.7330288874130582
330000000                0.47400943141864965      -0.7780383234792757
360000000                0.40116753410867984      -0.8166468908685532
390000000                0.3253031823198203       -0.8485610114219044
420000000                0.24701291295889832      -0.8735382733285096
450000000                0.16691620145292668      -0.8913900532198075
480000000                0.08564986932687564      -0.9019836096390446
510000000                0.0038625085991570887    -0.9052436573869731
540000000                -0.07779110458253857     -0.9011534240448686
570000000                -0.15865560723868147     -0.8897551866666146
600000000                -0.23808063980683303     -0.8711502855385063
630000000                -0.3154264001749515      -0.8454986130843116
660000000                -0.3900691244244514      -0.813017578470732
690000000                -0.46140645255673407     -0.7739805520361451
720000000                -0.5288626339661681      -0.7287147979513348
750000000                -0.5918935259533994      -0.6775989082631375
780000000                -0.6499913374014068      -0.6210597569642172
810000000                -0.7026890709959339      -0.5595689977437379
840000000                -0.7495646183189111      -0.493639134736085
870000000                -0.7902444646764908      -0.42381920092081843
900000000                -0.8244069638412018      -0.3506900838776618
930000000                -0.8517851470346918      -0.2748595430963572
960000000                -0.8721690349218039      -0.19695696775947721
990000000                -0.8854074271773694      -0.11762792695657448
1020000000               -0.8914091498007152      -0.03752856759526179
1050000000               -0.8901437468101566      0.04268008273928562
1080000000               -0.8816416095026032      0.1223378494794024
1110000000               -0.8659935431989247      0.20079112224776363
1140000000               -0.843349778153592       0.2773984850752677
1170000000               -0.8139184379306214      0.3515362083711406
1200000000               -0.7779634849260062      0.4226035476937622
1230000000               -0.7358021686823402      0.4900277972798357
1260000000               -0.6878020082583873      0.5532690498240465
1290000000               -0.6343773446122244      0.6118246187544705
1320000000               -0.5759855035852229      0.6652330834444812
1350000000               -0.5131226132648553      0.7130779237238856
1380000000               -0.4463191225185419      0.754990715204499
1410000000               -0.3761350694850036      0.7906538628241383
1440000000               -0.3031551499984175      0.8198028558559785
1470000000               -0.22798363644473982     0.8422280333844686
1500000000               -0.151239197358019       0.8577758548543829
1530000000               -0.07354966719164331     0.8663496757076168
1560000000               0.004453185911763136     0.8679100331960877
1590000000               0.08213884827022451      0.8624744520749883
1620000000               0.15888316130767174      0.8501167841802906
1650000000               0.23407329404235677      0.8309660995967791
1680000000               0.30711254965743484      0.8052051504282821
1710000000               0.3774249719090763       0.7730684309063854
1740000000               0.44445972025426106      0.734839859897885
1770000000               0.5076951861205636       0.6908501136741695
1800000000               0.5666428261961717       0.6414736381366417
1830000000               0.6208506917676424       0.5871253707525634
1860000000               0.6699066365437762       0.5282572030132113
1890000000               0.7134411884219759       0.4653542146018487
1920000000               0.7511300737587988       0.39893071038364447
1950000000               0.782696385513816        0.329526091209178
1980000000               0.8079123895635242       0.25770058889442454
2010000000               0.8266009662216889       0.18403089490675728
2040000000               0.838636686785954        0.10910571081731475
2070000000               0.8439465274575056       0.033521246447737234
2100000000               0.8425102250501088       -0.042123311849903984
2130000000               0.8343602795203164       -0.11723034513414715
2.16E9                   0.8195816059385937       -0.1912083471798285
2.19E9                   0.7983108303567864       -0.26347646692640775
2.22E9                   0.7707352070125033       -0.3334690471503414
2.25E9                   0.7370911079403776       -0.4006401480089392
2.28E9                   0.6976620088302543       -0.46446800721629933
2.31E9                   0.6527758938511735       -0.5244593153262755
2.34E9                   0.6028020697932128       -0.5801530958782724
2.37E9                   0.5481475399773225       -0.6311239482459854
2.4E9                    0.4892532760550916       -0.6769845353420213
2.43E9                   0.4265907703316078       -0.7173874855596748
2.46E9                   0.3606590206195801       -0.7520271405391801
2.49E9                   0.2919817129583024       -0.7806415591961167
2.52E9                   0.22110414372292697      -0.8030148613974828
2.55E9                   0.1485895372190452       -0.8189796391986685
2.58E9                   0.07501471779408764      -0.8284190464405358
2.61E9                   9.65327056560561E-4      -0.831268299261589
2.64E9                   -0.07296916873895452     -0.8275155084295265
2.67E9                   -0.14620049788856945     -0.8172018874818505
2.7E9                    -0.21814652933231235     -0.8004214175860259
2.73E9                   -0.2882361021489867      -0.7773200375769265
2.76E9                   -0.35591371874482286     -0.7480944025781379
2.79E9                   -0.42064408571752276     -0.7129902350757071
2.82E9                   -0.48191648172446144     -0.6723002821798976
2.85E9                   -0.539248925743985       -0.626361890108702
2.88E9                   -0.5921921146248204      -0.5755542086430765
2.91E9                   -0.6403330963346868      -0.5202950422638751
2.94E9                   -0.6832986448112512      -0.4610373694166023
2.97E9                   -0.7207583032863396      -0.39826555624941706
3.0E9                    -0.7524270651602732      -0.332491295731347
3.03E9                   -0.7780676644998628      -0.2642493073518186
3.06E9                   -0.7974924521425285      -0.19409283612103304
3.09E9                   -0.8105648376909631      -0.12258899278196614
3.12E9                   -0.8172002826325309      -0.05031397930266435
3.15E9                   -0.8173668349101844      0.022151754568072647
3.18E9                   -0.8110852006436855      0.09422837723990277
3.21E9                   -0.7984283539499777      0.1653415173312115
3.24E9                   -0.7795206908674702      0.23492703629005818
3.27E9                   -0.7545367380185422      0.3024356874788793
3.3E9                    -0.7236994307478506      0.3673376196287491
3.33E9                   -0.6872779790748762      0.4291266845458644
3.36E9                   -0.6455853429322144      0.4873245111818647
3.39E9                   -0.5989753410528434      0.5414843100752266
3.42E9                   -0.5478394208487991      0.5911943738383174
3.45E9                   -0.49260311978490884     0.6360812411598558
3.48E9                   -0.43372225270549336     0.6758124933791994
3.51E9                   -0.3716788640068936      0.7100991553345299
3.54E9                   -0.30697698874280815     0.7386976757310111
3.57E9                   -0.24013827182213357     0.7614114678578363
3.6E9                    -0.17169749870659123     0.7780919989687978
3.63E9                   -0.10219809327737545     0.7886394259364446
3.66E9                   -0.032187638053770944    0.7930027847999015
3.69E9                   0.037786531311377304     0.7911797513385862
3.72E9                   0.10718161082944225      0.7832159978281136
3.75E9                   0.17546345250681805      0.7692041773588276
3.78E9                   0.24211049565542472      0.7492825720636909
3.81E9                   0.30661748121777355      0.7236334455983237
3.84E9                   0.36849893543944073      0.6924811425501409
3.87E9                   0.42729242159944913      0.6560899761950547
3.9E9                    0.48256157082624185      0.6147619389739822
3.93E9                   0.5338989113932077       0.5688342569465824
3.96E9                   0.5809285165547452       0.518676792760102
3.99E9                   0.6233084821391408       0.4646892866667008
4.02E9                   0.6607332290793722       0.40729841726623467
4.05E9                   0.6929356081300523       0.3469546658886879
4.08E9                   0.7196887700531349       0.28412898036327217
4.11E9                   0.7408077589913479       0.21930925102263862
4.14E9                   0.7561507904520468       0.1529966289349465
4.17E9                   0.7656201863143277       0.08570172901462474
4.2E9                    0.7691629538615893       0.017940766340519186
4.23E9                   0.7667710100849633       -0.04976832751573584
4.26E9                   0.758481063115993        -0.1169097681333528
4.29E9                   0.7443741680927666       -0.1829737313217517
4.32E9                   0.7245749748703567       -0.24746009418638135
4.35E9                   0.6992506812794113       -0.3098820887976183
4.38E9                   0.6686097004803412       -0.36976985526409323
4.41E9                   0.6329000466686676       -0.42667387946416924
4.44E9                   0.592407441570732        -0.48016829684668405
4.47E9                   0.5474531453127984       -0.5298540393337057
4.5E9                    0.4983915187646675       -0.5753617990181832
4.53E9                   0.44560732957724736      -0.616354780688025
4.56E9                   0.38951281972209845      -0.6525312156971368
4.59E9                   0.3305445577407611       -0.6836266121587367
4.62E9                   0.2691601031865165       -0.7094157207601953
4.65E9                   0.20583451323982943      -0.729714201146613
4.68E9                   0.14105672140760037      -0.7443799798239255
4.71E9                   0.07532581550749491      -0.753314295421266
4.74E9                   0.009147237786497087     -0.7564624292835942
4.77E9                   -0.05697107413730898     -0.7538141179394894
4.8E9                    -0.12252258800936106     -0.7454036396513203
4.83E9                   -0.18700609894966594     -0.7313095623698875
4.86E9                   -0.24992964501238424     -0.7116541379213429
4.89E9                   -0.31081437957443003     -0.6866023294152939
4.92E9                   -0.3691983555117824      -0.6563604661950984
4.95E9                   -0.4246401716861436      -0.6211745318415449
4.98E9                   -0.4767224327552823      -0.5813281035299908
5.01E9                   -0.5250549790071805      -0.5371399729203702
5.04E9                   -0.5692778530101891      -0.48896148751260216
5.07E9                   -0.6090639825887755      -0.43717365526545326
5.1E9                    -0.6441215726292173      -0.3821840530079694
5.13E9                   -0.674196207944233       -0.3244235710720262
5.16E9                   -0.6990726727698484      -0.2643430146704177
5.19E9                   -0.7185764873266929      -0.20240957156992345
5.22E9                   -0.7325751500430537      -0.1391031510106313
5.25E9                   -0.7409790609010822      -0.07491260473539024
5.28E9                   -0.743742094734709       -0.010331856082157169
5.31E9                   -0.7408617984334636      0.05414401852578293
5.34E9                   -0.7323792025867482      0.1180226990270207
5.37E9                   -0.7183782594631776      0.18081846508290875
5.4E9                    -0.6989849364079496      0.24205592809978072
5.43E9                   -0.6743660004736013      0.3012736247756278
5.46E9                   -0.6447275256163826      0.3580274614954744
5.49E9                   -0.6103131421869442      0.4118940080874562
5.52E9                   -0.5714020355711095      0.46247363956531135
5.55E9                   -0.5283066915018663      0.509393517409331
5.58E9                   -0.48137038229261686     0.5523103909098669
5.61E9                   -0.4309643913967549      0.5909131876221265
5.64E9                   -0.37748498298036587     0.6249253524084483
5.67E9                   -0.32135013731342        0.654106889649759
5.7E9                    -0.26299609003931873     0.6782560652367865
5.73E9                   -0.20287372978848578     0.6972107361266233
5.76E9                   -0.14144491838394072     0.7108492950384268
5.79E9                   -0.07917879589061166     0.7190912412302082
5.82E9                   -0.016548117881493418    0.7218974068004473
5.85E9                   0.04597434941025913      0.7192698738250848
5.88E9                   0.10791936904304099      0.711251609603269
5.91E9                   0.1688247088693979       0.6979258313902823
5.94E9                   0.22823854840088098      0.6794150976310657
5.97E9                   0.285722800961188        0.6558801164002591
6.0E9                    0.34085632309776576      0.6275182644732883
