% Model:              cali 1.19 0.25mm.mph
% Version:            COMSOL 5.6.0.280
% Date:               Feb 18 2022, 15:30
% Table:              表格 1 - 全局计算 1
% freq (Hz)              real(emw.S11) (1)        imag(emw.S11) (1)
300000000                0.5112245727312971       -0.6687060531453233
330000000                0.44808335034274016      -0.7129542380908491
360000000                0.3811779235512585       -0.7512497701828506
390000000                0.31106879952340505      -0.7832743895659366
420000000                0.23834324333983048      -0.8087625472579391
450000000                0.1636103312771475       -0.8275036493321603
480000000                0.087495813105574        -0.8393438388476414
510000000                0.010636828318248526     -0.8441872979578398
540000000                -0.0663234803995346      -0.8419970580332837
570000000                -0.1427414091478937      -0.8327953090040197
600000000                -0.21797814522402004     -0.8166632039158671
630000000                -0.291405181112551       -0.7937401587745002
660000000                -0.3624096435414235      -0.7642226526188018
690000000                -0.4303994914134309      -0.7283625368614954
720000000                -0.494808535766828       -0.6864648679371781
750000000                -0.555101238388591       -0.6388852811600079
780000000                -0.610777245969481       -0.5860269284457731
810000000                -0.6613756199793439      -0.5283370062742936
840000000                -0.7064787250494388      -0.4663029038975987
870000000                -0.7457157415348563      -0.40044800519176893
900000000                -0.7787657715190601      -0.33132717978612636
930000000                -0.8053605101164761      -0.2595220013422247
960000000                -0.8252864560882558      -0.1856357322372235
990000000                -0.8383866361261962      -0.110288117505045
1020000000               -0.8445618179294128      -0.03411003679816247
1050000000               -0.84377119185793        0.04226192528232258
1080000000               -0.836032516723026       0.11819091840855958
1110000000               -0.821421752334599       0.19304520524829705
1140000000               -0.8000722231357229      0.2662034334716638
1170000000               -0.772173349933698       0.3370597909794715
1200000000               -0.7379689513026246      0.4050290459675737
1230000000               -0.6977550893986952      0.4695514470583749
1260000000               -0.6518774446211499      0.5300974227118221
1290000000               -0.600728236430274       0.586172007090609
1320000000               -0.5447427336975277      0.6373189334440522
1350000000               -0.48439540530966296     0.683124356839979
1380000000               -0.42019575856942715     0.7232201814147117
1410000000               -0.3526839073120449      0.7572869737752538
1440000000               -0.2824259094322673      0.7850564456615543
1470000000               -0.21000891278287828     0.8063134905405399
1500000000               -0.13603614948351145     0.820897760060446
1530000000               -0.06112182051054891     0.8287047681195404
1560000000               0.014114084652716841     0.8296865128022214
1590000000               0.08905098450693086      0.8238516108794528
1620000000               0.16307286591675965      0.811264947492552
1650000000               0.23557335669607904      0.7920468551469789
1680000000               0.3059606666614329       0.7663718471931308
1710000000               0.3736623679110913       0.7344669340881234
1740000000               0.43812999602955305      0.6966095421283209
1770000000               0.4988434524608719       0.6531250404616726
1800000000               0.5553151735208299       0.6043838768239261
1830000000               0.6070940166288754       0.5507983323364453
1860000000               0.6537688101640026       0.49281892623126977
1890000000               0.6949715241150263       0.43093052050505415
1920000000               0.7303800386175503       0.36564818337433025
1950000000               0.7597205076758681       0.29751286660898835
1980000000               0.7827693282845456       0.22708693752762052
2010000000               0.7993547255110379       0.1549495895233941
2040000000               0.8093579538682957       0.08169214412350648
2070000000               0.8127141015649273       0.007913258241951698
2100000000               0.8094124756695348       -0.06578594008391814
2130000000               0.7994965461496211       -0.1388067506182958
2.16E9                   0.7830634339405429       -0.2105577875817522
2.19E9                   0.760262938409132        -0.2804598009096159
2.22E9                   0.731296110568573        -0.34795037694237196
2.25E9                   0.6964133899681304       -0.4124884637467597
2.28E9                   0.6559123359394001       -0.4735586703095459
2.31E9                   0.6101349956332733       -0.5306752995739356
2.34E9                   0.559464957553473        -0.5833860918975667
2.37E9                   0.5043241340935101       -0.631275674647814
2.4E9                    0.445169300280287        -0.6739687250269952
2.43E9                   0.38248839623074943      -0.7111328501791088
2.46E9                   0.31679659006207506      -0.7424811722791403
2.49E9                   0.24863210187147688      -0.767774587513213
2.52E9                   0.17855180549412744      -0.7868236568255341
2.55E9                   0.1071266427702339       -0.7994900878110294
2.58E9                   0.03493689798503663      -0.8056877772774341
2.61E9                   -0.03743261461900129     -0.8053833967190752
2.64E9                   -0.10939739744107797     -0.7985965136477763
2.67E9                   -0.18037809986467332     -0.7853992491487012
2.7E9                    -0.24980528332228635     -0.7659154772798153
2.73E9                   -0.3171240733500582      -0.740319576874256
2.76E9                   -0.38179865080338654     -0.7088347526428112
2.79E9                   -0.4433165372679856      -0.6717309500874018
2.82E9                   -0.5011926345834983      -0.6293223967886669
2.85E9                   -0.5549729875137909      -0.5819648084543169
2.88E9                   -0.6042382495030916      -0.5300522993947752
2.91E9                   -0.6486068408965863      -0.4740140331709755
2.94E9                   -0.6877377941921283      -0.4143106411044959
2.97E9                   -0.7213332793206075      -0.35143042860324797
3.0E9                    -0.7491407957224994      -0.2858853858588435
3.03E9                   -0.7709550112902923      -0.21820702290613836
3.06E9                   -0.7866192261343121      -0.14894205739496358
3.09E9                   -0.7960264437649798      -0.07864799197937139
3.12E9                   -0.7991200414488904      -0.007888622126032556
3.15E9                   -0.7958940403386867      0.06277048751391662
3.18E9                   -0.7863929798268562      0.13276652613539738
3.21E9                   -0.7707113989174719      0.20154393212427377
3.24E9                   -0.7489929231409113      0.2685588337132844
3.27E9                   -0.721428953213324       0.33328340284664165
3.3E9                    -0.6882569539364832      0.3952100833713509
3.33E9                   -0.6497583487656597      0.45385564897320485
3.36E9                   -0.606256034873751       0.5087650443876698
3.39E9                   -0.5581115429579143      0.5595149653731895
3.42E9                   -0.5057218741528839      0.6057171374376982
3.45E9                   -0.44951605264805816     0.6470212596270326
3.48E9                   -0.3899514370266586      0.6831175870107278
3.51E9                   -0.3275098361857916      0.7137391333846064
3.54E9                   -0.26269347630513024     0.7386634842439844
3.57E9                   -0.19602086357556914     0.757714218298276
3.6E9                    -0.1280225832834038      0.770761942656536
3.63E9                   -0.059237069891799804    0.7777249512956435
3.66E9                   0.00979362296081483      0.7785695177781276
3.69E9                   0.07852802846095025      0.7733098321525659
3.72E9                   0.1464294264375326       0.7620075896520269
3.75E9                   0.21296993467163824      0.7447712369707837
3.78E9                   0.2776345077903091       0.7217548815860573
3.81E9                   0.339924817987707        0.6931568710767352
3.84E9                   0.3993629910508011       0.6592180520655185
3.87E9                   0.4554951713955404       0.6202197215592369
3.9E9                    0.507894891214761        0.5764812861583962
3.93E9                   0.556166220555854        0.5283576467126843
3.96E9                   0.5999466769609202       0.4762363272766232
3.99E9                   0.6389098744875696       0.42053436829045304
4.02E9                   0.6727678926695901       0.3616950050867158
4.05E9                   0.701273346556048        0.3001841546196499
4.08E9                   0.7242211397455602       0.2364867360454085
4.11E9                   0.7414498843112981       0.17110285381091841
4.14E9                   0.7528429745691444       0.10454387499322255
4.17E9                   0.7583293059440198       0.0373284348318795
4.2E9                    0.75788363505552         -0.03002159490951156
4.23E9                   0.7515265817597282       -0.0969851405779727
4.26E9                   0.7393242778091413       -0.16304593192002467
4.29E9                   0.7213876695702027       -0.22769644777443385
4.32E9                   0.697871484023856        -0.29044177404117216
4.35E9                   0.6689728685046067       -0.350803347268864
4.38E9                   0.6349297156409772       -0.4083225582149794
4.41E9                   0.5960186863331931       -0.4625641901057277
4.44E9                   0.5525529454153034       -0.5131196667203812
4.47E9                   0.5048796269482774       -0.559610086035582
4.5E9                    0.45337704862571404      -0.6016890163282252
4.53E9                   0.39845169728883256      -0.639045033328894
4.56E9                   0.3405350095843897       -0.6714039793274156
4.59E9                   0.2800799735858281       -0.6985309274705981
4.62E9                   0.21755757851187918      -0.7202318370091709
4.65E9                   0.15345314101576799      -0.7363548877059604
4.68E9                   0.08826253757661569      -0.7467914844034698
4.71E9                   0.02248837358834184      -0.7514769258496212
4.74E9                   -0.04336388016067634     -0.7503907354625677
4.77E9                   -0.10878975342760207     -0.7435566552207341
4.8E9                    -0.17328961640911977     -0.7310423068551761
4.83E9                   -0.23637246694363725     -0.7129585264718372
4.86E9                   -0.2975596402090737      -0.6894583796662899
4.89E9                   -0.35638841691632744     -0.660735864512938
4.92E9                   -0.41241550594962445     -0.6270243102052903
4.95E9                   -0.4652203766163539      -0.5885944801624515
4.98E9                   -0.5144084146959819      -0.5457523904706028
5.01E9                   -0.5596138759275989      -0.4988368575285992
5.04E9                   -0.6005026109399136      -0.44821679237630213
5.07E9                   -0.6367745369937112      -0.39428826307134757
5.1E9                    -0.6681658345044913      -0.3374713499479429
5.13E9                   -0.694450849657609       -0.27820682138722336
5.16E9                   -0.7154436882340822      -0.2169526594892658
5.19E9                   -0.7309994895189892      -0.1541804656141741
5.22E9                   -0.7410153721794471      -0.09037177601179368
5.25E9                   -0.7454310465857492      -0.02601431748263966
5.28E9                   -0.7442290901476224      0.03840176661462646
5.31E9                   -0.7374348846469306      0.10238768906811975
5.34E9                   -0.7251162175769594      0.1654597586231219
5.37E9                   -0.7073825531572634      0.22714305519263944
5.4E9                    -0.6843839827009397      0.2869750094432485
5.43E9                   -0.6563098677383894      0.34450885768982253
5.46E9                   -0.6233871924745152      0.3993169455532106
5.49E9                   -0.5858786443033218      0.45099385706007733
5.52E9                   -0.5440804424046273      0.49915934890002167
5.55E9                   -0.4983199348632401      0.5434610724221777
5.58E9                   -0.4489529846771896      0.5835770680930847
5.61E9                   -0.3963611648240486      0.6192180185782706
5.64E9                   -0.34094878277145146     0.6501292473769485
5.67E9                   -0.2831397555960619      0.6760924506016338
5.7E9                    -0.22337435844993492     0.6969271503989121
5.73E9                   -0.1621058708419657      0.7124918603345525
5.76E9                   -0.09979714663358319     0.7226849556712117
5.79E9                   -0.036917134086588456    0.7274452445553539
5.82E9                   0.026062628040109462     0.7267522389363004
5.85E9                   0.08867151321353682      0.7206261262662719
5.88E9                   0.15044328440538415      0.7091274446112199
5.91E9                   0.21091952205580392      0.692356465102582
5.94E9                   0.2696529790451949       0.6704522870329573
5.97E9                   0.32621083896532393      0.6435916525837784
6.0E9                    0.3801778540055848       0.6119874902998803
