% Model:              three_layers reality at 0.1mm.mph
% Version:            COMSOL 5.6.0.280
% Date:               Feb 23 2022, 20:24
% Table:              表格 1 - 全局计算 1
% freq (Hz)              real(emw.S11) (1)        imag(emw.S11) (1)
300000000                0.40511494451614305      -0.7707729366688721
330000000                0.32170867296254624      -0.8064170989957365
360000000                0.23538662614378758      -0.8332639895066105
390000000                0.14704517195732444      -0.8510716646050007
420000000                0.05760610674981681      -0.8596924710208385
450000000                -0.03199500920450014     -0.8590749857218211
480000000                -0.12082008701511189     -0.8492647807864128
510000000                -0.20793940239861242     -0.8304040395441208
540000000                -0.29244215123647116     -0.8027300525004755
570000000                -0.37344662709657234     -0.7665726271510268
600000000                -0.45010995683574206     -0.7223504531876932
630000000                -0.5216373175899566      -0.6705664733188819
660000000                -0.587290554207854       -0.6118023188913628
690000000                -0.6463961157452143      -0.54671187887405
720000000                -0.6983522335433712      -0.47601407932488754
750000000                -0.7426352687232598      -0.4004849591139279
780000000                -0.7788051651282825      -0.3209491348269529
810000000                -0.8065099524829975      -0.23827075476566076
840000000                -0.8254892553002048      -0.15334404670193694
870000000                -0.8355767736470766      -0.06708356911496775
900000000                -0.8367017141028518      0.01958572236021548
930000000                -0.8288891610043893      0.10573847939689825
960000000                -0.8122593905179546      0.1904589228373026
990000000                -0.7870261422301787      0.2728506494335099
1020000000               -0.7534938749704962      0.3520461739565851
1050000000               -0.7120540451628968      0.42721610100401475
1080000000               -0.6631804570049535      0.49757782633185976
1110000000               -0.6074237440479461      0.5624036739465178
1140000000               -0.5454050511206423      0.6210283829058111
1170000000               -0.47780899404707        0.6728558661459834
1200000000               -0.4053759817969975      0.7173651732063963
1230000000               -0.32889399198975666     0.7541155985805021
1260000000               -0.24918989563203395     0.7827508879825027
1290000000               -0.1671204305741478      0.8030025057682562
1320000000               -0.08356292575339702     0.8146919377392353
1350000000               5.941205968282404E-4     0.8177320147465432
1380000000               0.08446050550347764      0.8121272535504995
1410000000               0.16715372663718586      0.797973222213442
1440000000               0.24780822874118993      0.7754549477834917
1470000000               0.3255843947774684       0.7448443940602048
1500000000               0.39967718976896516      0.7064970466857222
1530000000               0.4693243705091996       0.6608476516600943
1560000000               0.5338141802932835       0.608405161496562
1590000000               0.5924924546080508       0.5497469505793178
1620000000               0.6447690709050118       0.48551236788414587
1650000000               0.6901236835145206       0.41639570087181677
1680000000               0.7281106929436696       0.3431386292734418
1710000000               0.758363407440712        0.2665222513676064
1740000000               0.780597363553374        0.18735876852121952
1770000000               0.7946127815616862       0.10648291572847023
1800000000               0.8002961408401803       0.024743227281415568
1830000000               0.7976208695969274       -0.05700677326694175
1860000000               0.7866471528119029       -0.13791737040332372
1890000000               0.7675208715631133       -0.21715135486644602
1920000000               0.7404716961764564       -0.2938925397309033
1950000000               0.7058103645669658       -0.36735401628958675
1980000000               0.6639251853307049       -0.4367860787551081
2010000000               0.6152778120101403       -0.5014837561190524
2040000000               0.5603983389352468       -0.5607939021506751
2070000000               0.4998797679828124       -0.614121810020304
2100000000               0.4343718854432176       -0.6609373358249105
2130000000               0.3645745636727464       -0.7007805309494832
2.16E9                   0.2912304570087311       -0.7332667870071701
2.19E9                   0.21511699448163757      -0.7580914679647157
2.22E9                   0.13703749803847104      -0.775033909585314
2.25E9                   0.057811228110809236     -0.7839604715681517
2.28E9                   -0.021737709951175077    -0.7848260385334956
2.31E9                   -0.10079223228739398     -0.7776731120241005
2.34E9                   -0.1785537904968404      -0.762627740574169
2.37E9                   -0.2542516797136322      -0.7398923850266927
2.4E9                    -0.3271483991412182      -0.709737361195569
2.43E9                   -0.3965409012221091      -0.6724937465301934
2.46E9                   -0.46175993870188164     -0.6285501486391589
2.49E9                   -0.5221709377645273      -0.5783533264484214
2.52E9                   -0.5771786394698899      -0.5224101581581401
2.55E9                   -0.6262352099522186      -0.4612878869437057
2.58E9                   -0.6688497517410501      -0.39561098417590884
2.61E9                   -0.7045970754863831      -0.326054787610924
2.64E9                   -0.7331245454609665      -0.2533370512272487
2.67E9                   -0.7541567800479835      -0.1782085818327965
2.7E9                    -0.7674985045840236      -0.10144373723264138
2.73E9                   -0.7730359677821562      -0.02383115296949109
2.76E9                   -0.7707372522039768      0.053835188979414084
2.79E9                   -0.7606516880225055      0.13076454534887025
2.82E9                   -0.7429084841635027      0.20617767033646262
2.85E9                   -0.7177146341575883      0.27931475531352346
2.88E9                   -0.6853521273777471      0.34944303566351165
2.91E9                   -0.6461744884333693      0.415864032211987
2.94E9                   -0.6006026695738643      0.4779203820977076
2.97E9                   -0.5491203277134501      0.5350022069923357
3.0E9                    -0.49226852604952803     0.5865529644265965
3.03E9                   -0.4306399087827192      0.6320747292466695
3.06E9                   -0.36487240530085957     0.6711328562325699
3.09E9                   -0.2956425269232476      0.7033599808528431
3.12E9                   -0.22365832457611107     0.7284593225965543
3.15E9                   -0.14965207933937244     0.7462072637060981
3.18E9                   -0.07437279927545469     0.7564551849398402
3.21E9                   0.0014214043485663908    0.7591305483254251
3.24E9                   0.07697099064646765      0.7542372240965456
3.27E9                   0.15152264470287025      0.7418550642507761
3.3E9                    0.2243368504998534       0.7221387282375968
3.33E9                   0.2946953181976779       0.6953157672837638
3.36E9                   0.36190820192343587      0.6616839737519096
3.39E9                   0.4253210400943404       0.6216080021095128
3.42E9                   0.4843213427372405       0.5755152706255489
3.45E9                   0.5383447402280407       0.5238911598063161
3.48E9                   0.5868805973033862       0.46727353685551426
3.51E9                   0.6294769883779652       0.4062466560326926
3.54E9                   0.6657449291278443       0.3414345121373242
3.57E9                   0.6953617690150531       0.2734937555185726
3.6E9                    0.718073672293955        0.20310630646582895
3.63E9                   0.7336971499722648       0.13097182809448257
3.66E9                   0.7421196474025635       0.057800224429696595
3.69E9                   0.7432992344089634       -0.01569567730591242
3.72E9                   0.7372634808771942       -0.08880712106007993
3.75E9                   0.7241076286262331       -0.1608359807880873
3.78E9                   0.7039921922377961       -0.2311008024899239
3.81E9                   0.6771401395561611       -0.2989422855111388
3.84E9                   0.6438338131027891       -0.3637282079158364
3.87E9                   0.6044117454426172       -0.42485786208750814
3.9E9                    0.5592654814088341       -0.4817661301299362
3.93E9                   0.5088364437390748       -0.533927372285679
3.96E9                   0.4536127795996414       -0.5808593011842157
3.99E9                   0.39412603318598266      -0.6221269587478041
4.02E9                   0.3309474375124822       -0.6573468112321994
4.05E9                   0.2646836274185819       -0.6861908612951908
4.08E9                   0.19597164368767608      -0.7083905810114374
4.11E9                   0.125473202293092        -0.7237404236617941
4.14E9                   0.05386831067581177      -0.7321006833571194
4.17E9                   -0.018151604274171264    -0.733399529627859
4.2E9                    -0.08989085054691355     -0.7276341267451969
4.23E9                   -0.160656703988707       -0.7148708301692188
4.26E9                   -0.22976655211275043     -0.6952445152446853
4.29E9                   -0.29655483335651195     -0.6689571253437073
4.32E9                   -0.36037970697696536     -0.6362755279251605
4.35E9                   -0.4206294233389272      -0.597528746231597
4.38E9                   -0.47672837636430904     -0.5531046056436193
4.41E9                   -0.5281428121006319      -0.5034458103644266
4.44E9                   -0.5743861479478672      -0.4490454569043758
4.47E9                   -0.615023836721387       -0.39044199727617707
4.5E9                    -0.6496776961476968      -0.328213683551446
4.53E9                   -0.6780296218587765      -0.26297255030411176
4.56E9                   -0.6998246110795637      -0.1953580166939104
4.59E9                   -0.7148730436682302      -0.12603021070235573
4.62E9                   -0.7230521945821499      -0.0556631303620767
4.65E9                   -0.7243069832914805      0.015062242735015158
4.68E9                   -0.7186499951327968      0.08546477579682955
4.71E9                   -0.7061608293110587      0.15486988713647584
4.74E9                   -0.6869848312387394      0.22261607416815032
4.77E9                   -0.6613312512392784      0.28806124904753266
4.8E9                    -0.6294708434395172      0.3505888733034532
4.83E9                   -0.5917328910218033      0.4096138699086616
4.86E9                   -0.5485016312484549      0.46458826030288397
4.89E9                   -0.5002120642607736      0.515006437732958
4.92E9                   -0.44734516270395785     0.5604099615053031
4.95E9                   -0.39042254540493737     0.6003917505816411
4.98E9                   -0.33000072514948275     0.6345995727658318
5.01E9                   -0.26666507620762925     0.6627387649383397
5.04E9                   -0.2010236828924401      0.6845741731267478
5.07E9                   -0.1337012205810531      0.6999313585809644
5.1E9                    -0.06533298393635789     0.7086971647616032
5.13E9                   0.0034408811922943985    0.7108197658536973
5.16E9                   0.07198095118201593      0.706308308239971
5.19E9                   0.13965396252900125      0.6952322101420982
5.22E9                   0.20583818535017198      0.6777201154466388
5.25E9                   0.26992876728485327      0.6539584350237743
5.28E9                   0.3313430111973693       0.6241893850206882
5.31E9                   0.3895254782667905       0.5887084626837823
5.34E9                   0.44395277367748637      0.5478613736633852
5.37E9                   0.49413789436541333      0.5020405042017532
5.4E9                    0.539634085874882        0.4516810784117118
5.43E9                   0.5800382353590804       0.39725713528026707
5.46E9                   0.6149938850552975       0.33927740917566773
5.49E9                   0.6441939656494796       0.278281126742099
5.52E9                   0.6673833222303025       0.21483367012476623
5.55E9                   0.6843610514444727       0.14952202024010627
5.58E9                   0.6949826054240678       0.08294989098349607
5.61E9                   0.6991615618450049       0.015732493395572072
5.64E9                   0.6968709217204229       -0.05150907853391391
5.67E9                   0.6881437864830681       -0.11815378053264454
5.7E9                    0.6730732911720715       -0.18358673853360713
5.73E9                   0.6518117329055028       -0.2472053727397474
5.76E9                   0.6245689216048259       -0.3084253272931898
5.79E9                   0.5916098643442291       -0.3666860473286117
5.82E9                   0.5532519396727674       -0.4214559280014741
5.85E9                   0.5098617026857787       -0.47223705014205913
5.88E9                   0.4618513962278652       -0.51856957216326
5.91E9                   0.4096751658400127       -0.5600358459146129
5.94E9                   0.3538249249693237       -0.5962642761111536
5.97E9                   0.2948258105510176       -0.6269328798873364
6.0E9                    0.23323119976369622      -0.651772454511018
