% Model:              three_layers reality at 0.1mm.mph
% Version:            COMSOL 5.6.0.280
% Date:               Feb 24 2022, 21:23
% Table:              表格 1 - 全局计算 1
% freq (Hz)              real(emw.S11) (1)        imag(emw.S11) (1)
300000000                0.5308932925789458       -0.7519942076399881
330000000                0.45837785624986993      -0.7963615094973758
360000000                0.3823242582382442       -0.833911131441801
390000000                0.3033422967665663       -0.8643521698045625
420000000                0.2220723138707733       -0.8874489445373904
450000000                0.13917857805683695      -0.9030242173275269
480000000                0.05534281881000354      -0.910961640044638
510000000                -0.028742176269943444    -0.9112075036146179
540000000                -0.11237893688980823     -0.9037718248591763
570000000                -0.19487165839391737     -0.8887287912059307
600000000                -0.2755325036760296      -0.8662165750831445
630000000                -0.353687824747961       -0.8364365269222148
660000000                -0.4286842621529962      -0.7996517560994709
690000000                -0.4998946732135746      -0.7561851121905987
720000000                -0.5667238380773173      -0.7064165826911966
750000000                -0.6286138894118876      -0.6507801289725
780000000                -0.6850494122519387      -0.589759987657987
810000000                -0.7355621611816704      -0.523886470918962
840000000                -0.7797353447816335      -0.45373130490183117
870000000                -0.8172074302756418      -0.37990255185224914
900000000                -0.8476754261451289      -0.30303916681593757
930000000                -0.8708976058440895      -0.22380524479269834
960000000                -0.8866956419127958      -0.14288401858474428
990000000                -0.8949561266271883      -0.06097167125593847
1020000000               -0.8956314628370864      0.02122897047755647
1050000000               -0.8887401163417826      0.10301479391214584
1080000000               -0.8743662291392135      0.18368874048998873
1110000000               -0.8526586008773714      0.2625660603070686
1140000000               -0.82382905370415        0.3389804145196042
1170000000               -0.7881502032587699      0.4122897617186162
1200000000               -0.745952665674838       0.48188196783912496
1230000000               -0.6976217369143426      0.5471800837580706
1260000000               -0.6435935866821926      0.6076472395971265
1290000000               -0.5843510140079877      0.6627911109242645
1320000000               -0.5204188158377973      0.7121679180580447
1350000000               -0.4523588231155189      0.7553859264699857
1380000000               -0.38076466113864654     0.7921084231027054
1410000000               -0.30625629218577066     0.8220561503948716
1440000000               -0.2294743989950975      0.8450091865314967
1470000000               -0.15107466707519226     0.8608082671802006
1500000000               -0.07172202269829846     0.8693555502168439
1530000000               0.007915118578932479     0.8706148308743082
1560000000               0.08717054053939624      0.8646112201362408
1590000000               0.16538580279290047      0.8514303040377089
1620000000               0.24191565932017625      0.8312168058229095
1650000000               0.3161332770363949       0.8041727765269159
1680000000               0.38743521627854083      0.7705553426005979
1710000000               0.45524613910638867      0.7306740416531735
1740000000               0.5190232154849834       0.6848877792258246
1770000000               0.5782602012700983       0.6336014409173898
1800000000               0.6324911658984885       0.5772621950026825
1830000000               0.6812938512712781       0.5163555212046406
1860000000               0.724292646836733        0.4514010013467368
1890000000               0.7611611690576172       0.3829479074767608
1920000000               0.7916244364282292       0.3115706226331182
1950000000               0.8154606339173829       0.23786392883040822
1980000000               0.8325024631445168       0.1624381962597782
2010000000               0.8426380769169086       0.08591450674650493
2040000000               0.8458115987084771       0.008919744043751522
2070000000               0.8420232296810334       -0.06791831758992357
2100000000               0.831328947546433        -0.14397589559544346
2130000000               0.813839803352554        -0.2186380220153964
2.16E9                   0.789720823920656        -0.29130327787710314
2.19E9                   0.7591895293231326       -0.36138841063945865
2.22E9                   0.7225140764508204       -0.428332807220997
2.25E9                   0.6800110411427298       -0.4916027966117927
2.28E9                   0.6320428527168659       -0.5506957573086166
2.31E9                   0.5790148952958974       -0.6051440070034182
2.34E9                   0.521372290020141        -0.6545184538505575
2.37E9                   0.4595963701247954       -0.6984319904484793
2.4E9                    0.39420085648616787      -0.7365426116680521
2.43E9                   0.3257277347112572       -0.768556233329128
2.46E9                   0.25474282839512397      -0.794229176869111
2.49E9                   0.181831063041815        -0.8133702625206951
2.52E9                   0.10759143343718627      -0.8258424217647637
2.55E9                   0.03263173689108658      -0.8315637135242393
2.58E9                   -0.04243678269201841     -0.8305076389431723
2.61E9                   -0.11700465334447685     -0.8227027325967846
2.64E9                   -0.190469020894861       -0.808231562156076
2.67E9                   -0.26223801299579014     -0.7872294144811638
2.7E9                    -0.3317347384917243      -0.759882956471273
2.73E9                   -0.398401213084663       -0.7264289814392013
2.76E9                   -0.46170248154482146     -0.6871530972920924
2.79E9                   -0.5211310090795663      -0.6423880673556135
2.82E9                   -0.5762111980880978      -0.5925115591040797
2.85E9                   -0.6265037868059009      -0.5379432134205161
2.88E9                   -0.671609914512866       -0.4791410921623432
2.91E9                   -0.7111747243100086      -0.4165976307516358
2.94E9                   -0.7448904522224431      -0.35083522521047145
2.97E9                   -0.7724989959151147      -0.28240155569235864
3.0E9                    -0.79379397177446        -0.21186472006442406
3.03E9                   -0.8086222697579899      -0.1398082319202445
3.06E9                   -0.8168851115008128      -0.06682592851496938
3.09E9                   -0.8185386143277511      0.006483168501836337
3.12E9                   -0.813593863482608       0.07951999611934212
3.15E9                   -0.8021164969591861      0.1516905521012157
3.18E9                   -0.7842258109982638      0.22241091072574634
3.21E9                   -0.7600933988808442      0.2911121068053145
3.24E9                   -0.7299413404915204      0.3572448437370152
3.27E9                   -0.6940399648274158      0.42028398348766594
3.3E9                    -0.6527052119416581      0.4797327792365363
3.33E9                   -0.6062956246449129      0.5351268147151859
3.36E9                   -0.55520900352908        0.5860376181200087
3.39E9                   -0.49987876164740186     0.6320759224240136
3.42E9                   -0.44077001734737603     0.6728945481898991
3.45E9                   -0.3783754655849736      0.7081908892200994
3.48E9                   -0.3132110692632226      0.7377089858897521
3.51E9                   -0.24581161296250276     0.7612411754861586
3.54E9                   -0.1767261617435356      0.7786293134326443
3.57E9                   -0.10651346751641491     0.7897655638539546
3.6E9                    -0.035737364646278635    0.7945927624842831
3.63E9                   0.035037804913172724     0.7931043593242402
3.66E9                   0.10525169877608392      0.7853439525670176
3.69E9                   0.17435237821628677      0.7714044289040163
3.72E9                   0.24180057702142774      0.7514267280845282
3.75E9                   0.3070738064733311       0.7255982513713696
3.78E9                   0.3696702708666603       0.6941509342632841
3.81E9                   0.42911257030389793      0.6573590038501345
3.84E9                   0.48495116866489457      0.6155364409693822
3.87E9                   0.5367676047424575       0.5690341676499575
3.9E9                    0.5841774238783147       0.5182369819394982
3.93E9                   0.6268328070376405       0.4635602653844652
3.96E9                   0.6644248750005222       0.4054464933662554
3.99E9                   0.6966856485233568       0.34436158432601316
4.02E9                   0.7233896515943794       0.2807911294107788
4.05E9                   0.7443551542802042       0.21523654719517882
4.08E9                   0.7594450627112658       0.14821120702851417
4.11E9                   0.7685674738683815       0.08023655819251935
4.14E9                   0.7716759187887074       0.011838291431001197
4.17E9                   0.7687693174507935       -0.056457452443174884
4.2E9                    0.7598916621583985       -0.12412782112788073
4.23E9                   0.7451314368564539       -0.1906569336338295
4.26E9                   0.7246207720313671       -0.2555395008955144
4.29E9                   0.6985343321996851       -0.31828437072814153
4.32E9                   0.6670879359018589       -0.37841797775300245
4.35E9                   0.6305369138599176       -0.43548767720607445
4.38E9                   0.5891742154949832       -0.4890649443597682
4.41E9                   0.5433282744839728       -0.5387484260329162
4.44E9                   0.4933606405994422       -0.5841668335452681
4.47E9                   0.4396633802044253       -0.6249816651704372
4.5E9                    0.382656244815316        -0.660889740721023
4.53E9                   0.32278360848886367      -0.6916255234826825
4.56E9                   0.26051118068350726      -0.7169631983319844
4.59E9                   0.19632251028871953      -0.7367184718154832
4.62E9                   0.13071530654595717      -0.750750061178346
4.65E9                   0.06419761139196467      -0.7589608445767704
4.68E9                   -0.0027161360734996977   -0.7612986528489447
4.71E9                   -0.06950909973804863     -0.757756692778055
4.74E9                   -0.13566606915262316     -0.7483736010561307
4.77E9                   -0.20067746706339876     -0.7332331353926879
4.8E9                    -0.26404331015260446     -0.7124635131257446
4.83E9                   -0.32527709706702246     -0.6862364079325456
4.86E9                   -0.38390960108209815     -0.6547656128446904
4.89E9                   -0.439492544657718       -0.6183053747567379
4.92E9                   -0.491602130232529       -0.5771484041207856
4.95E9                   -0.5398423973357437      -0.5316235648283856
4.98E9                   -0.5838483724029402      -0.4820932534421227
5.01E9                   -0.6232889758056674      -0.4289504829968541
5.04E9                   -0.6578696508919437      -0.37261569353075147
5.07E9                   -0.687334682343578       -0.3135333182765105
5.1E9                    -0.7114691754656413      -0.2521681406816659
5.13E9                   -0.730100674185983       -0.18900148253412108
5.16E9                   -0.7431004033221887      -0.12452726683973979
5.19E9                   -0.7503841295029949      -0.05924799958338705
5.22E9                   -0.7519126433896487      0.006329288380118066
5.25E9                   -0.7476918714809181      0.07169710407931894
5.28E9                   -0.7377726270014123      0.13635153151470988
5.31E9                   -0.7222500063783083      0.19979622342359946
5.34E9                   -0.7012624330757792      0.2615463220610879
5.37E9                   -0.6749903477452373      0.32113228056373533
5.4E9                    -0.6436545455869489      0.3781035493431919
5.43E9                   -0.6075141687584407      0.43203208620749356
5.46E9                   -0.5668643717537462      0.4825156469647775
5.49E9                   -0.5220336881456401      0.5291808160238237
5.52E9                   -0.47338113587853337     0.5716857429629728
5.55E9                   -0.4212931043807017      0.6097225600535126
5.58E9                   -0.3661800697255501      0.6430194661348041
5.61E9                   -0.30847318353035535     0.6713424732637252
5.64E9                   -0.24862077658373247     0.6944968229572148
5.67E9                   -0.18708480917369724     0.7123280864318781
5.7E9                    -0.12433728823996991     0.7247229651493248
5.73E9                   -0.06085666067880986     0.7316098023341507
5.76E9                   0.002875812154949209     0.7329588042886265
5.79E9                   0.06637968781416444      0.7287819579886663
5.82E9                   0.12917895836049506      0.7191326263647253
5.85E9                   0.19080560647740602      0.7041048097320518
5.88E9                   0.2508030518407482       0.6838320790527445
5.91E9                   0.30872944142243935      0.6584862061605765
5.94E9                   0.3641607515352263       0.6282755291481078
5.97E9                   0.41669368689255076      0.5934430936572029
6.0E9                    0.4659483758094936       0.5542646044068354
