% Model:              three_layers reality at 0.1mm.mph
% Version:            COMSOL 5.6.0.280
% Date:               Mar 11 2022, 10:44
% Table:              表格 1 - 全局计算 1
% freq (Hz)              real(emw.S11) (1)        imag(emw.S11) (1)
300000000                0.607256738072471        -0.7405616042959831
330000000                0.5403140778200302       -0.789922301102053
360000000                0.46949080009267874      -0.8333063347839174
390000000                0.3953032624766259       -0.8704097730582175
420000000                0.31829463296926125      -0.9009723181377253
450000000                0.23903051146781973      -0.9247800936079508
480000000                0.15809444234591138      -0.9416678487033526
510000000                0.0760833375981255       -0.9515206393843418
540000000                -0.006397165286570861    -0.9542750215430443
570000000                -0.08873738562273044     -0.9499197793978352
600000000                -0.17032829356577645     -0.9384962038159778
630000000                -0.2505661862497349      -0.9200979325877454
660000000                -0.3288573138741505      -0.8948703627433855
690000000                -0.40462242335038506     -0.8630096456688089
720000000                -0.47730118768093893     -0.824761276461749
750000000                -0.5463564867573732      -0.7804182915365168
780000000                -0.6112785088602412      -0.7303190896736009
810000000                -0.6715886401975214      -0.6748448950995704
840000000                -0.7268431129556859      -0.614416883113742
870000000                -0.7766363832859204      -0.5494929910972162
900000000                -0.8206042121199961      -0.48056444121161657
930000000                -0.8584264249735002      -0.4081520015684957
960000000                -0.8898293280632225      -0.33280201730904113
990000000                -0.9145877621945129      -0.2550822420611053
1020000000               -0.9325267775839656      -0.17557750455994953
1050000000               -0.9435229167343455      -0.09488524478321664
1080000000               -0.947505095388169       -0.013610955720778384
1110000000               -0.944455074997763       0.06763643194432149
1140000000               -0.9344075237297798      0.14824918585666463
1170000000               -0.9174496663285425      0.22762539028152817
1200000000               -0.8937205267643379      0.30517351067289106
1230000000               -0.8634097709382456      0.3803168674243163
1260000000               -0.8267561601362658      0.45249798339090885
1290000000               -0.7840456290284534      0.5211827710976961
1320000000               -0.7356090051787416      0.5858645268827917
1350000000               -0.6818193897729833      0.6460677011220647
1380000000               -0.6230892223079572      0.7013514156371214
1410000000               -0.5598670535941075      0.7513127023665449
1440000000               -0.4926340548213813      0.7955894388559841
1470000000               -0.42190029096084747     0.8338629599434348
1500000000               -0.3482007895250148      0.8658603270235734
1530000000               -0.27209143643880357     0.8913562396918991
1560000000               -0.1941447316695861      0.9101745775240048
1590000000               -0.11494543863385794     0.9221895626274116
1620000000               -0.03508616111286429     0.9273265369495877
1650000000               0.044837118264864986     0.9255623512535678
1680000000               0.12422950340191666      0.916925365663043
1710000000               0.20250162112373504      0.901495064770828
1740000000               0.27907399504286695      0.8794012930091768
1770000000               0.3533813249523256       0.8508231189182022
1800000000               0.42487664109345274      0.8159873393114752
1830000000               0.4930353032301044       0.775166637121334
1860000000               0.5573588165488556       0.7286774088578696
1890000000               0.617378438005888        0.6768772796767518
1920000000               0.6726585480754412       0.6201623263963274
1950000000               0.7227997653057128       0.5589640302772455
1980000000               0.7674417829356713       0.4937459830603612
2010000000               0.8062659086709076       0.4250003715321
2040000000               0.838997291345796        0.3532442667750118
2070000000               0.8654068202079629       0.27901574556356934
2100000000               0.8853126849717317       0.20286987213675656
2130000000               0.898581587019677        0.1253745697066245
2.16E9                   0.905129594776195        0.04710641094008429
2.19E9                   0.9049226384783431       -0.031353642270978976
2.22E9                   0.8979766421289054       -0.1094245198891253
2.25E9                   0.8843572928079553       -0.1865293153359381
2.28E9                   0.8641794499802625       -0.26209951778069046
2.31E9                   0.8376061997510569       -0.33557917588344666
2.34E9                   0.8048475612675798       -0.4064289641891728
2.37E9                   0.7661588545138507       -0.47413012449314035
2.4E9                    0.7218387403854397       -0.53818825548033
2.43E9                   0.6722269450264765       -0.5981369251099833
2.46E9                   0.6177016814620686       -0.6535410801011705
2.49E9                   0.5586767818936306       -0.704000226812556
2.52E9                   0.49559855613187465      -0.7491513550447332
2.55E9                   0.4289423962036516       -0.7886715733932977
2.58E9                   0.3592091568048897       -0.822280423265421
2.61E9                   0.28692135372406824      -0.8497418442197324
2.64E9                   0.21261923149627898      -0.8708657786857125
2.67E9                   0.1368567490176403       -0.8855094250503929
2.7E9                    0.06019751166097329      -0.8935781624305927
2.73E9                   -0.016789343712348703    -0.8950261646592905
2.76E9                   -0.09353331544326747     -0.8898566996858464
2.79E9                   -0.1694667483520462      -0.8781220901930413
2.82E9                   -0.24402906081197662     -0.85992330725527
2.85E9                   -0.3166709427900045      -0.8354091805591314
2.88E9                   -0.38685847569134657     -0.8047752253908946
2.91E9                   -0.4540771295215721      -0.7682620993788152
2.94E9                   -0.517835601008827       -0.7261537080780225
2.97E9                   -0.5776694619984857      -0.6787749805701734
3.0E9                    -0.6331445917078433      -0.6264893364072837
3.03E9                   -0.683860368417328       -0.569695865766074
3.06E9                   -0.7294525979130673      -0.5088262455004146
3.09E9                   -0.7695961573833708      -0.4443414153993123
3.12E9                   -0.8040073354244923      -0.37672804044270364
3.15E9                   -0.8324458507426528      -0.3064947867360027
3.18E9                   -0.8547165346318993      -0.23416844037186407
3.21E9                   -0.8706706649740765      -0.16028989969880045
3.24E9                   -0.8802069423412884      -0.08541007260902911
3.27E9                   -0.8832721016880036      -0.010085711157089271
3.3E9                    -0.8798611561791628      0.06512478362030275
3.33E9                   -0.8700172727404205      0.13966555395228206
3.36E9                   -0.8538312818738346      0.2129874418841706
3.39E9                   -0.8314408273217874      0.28455207782091557
3.42E9                   -0.8030291639908882      0.3538358697211025
3.45E9                   -0.7688236154353014      0.42033386228632197
3.48E9                   -0.7290937047766056      0.4835634370912265
3.51E9                   -0.6841489755847041      0.5430678258383076
3.54E9                   -0.634336521546894       0.598419410817839
3.57E9                   -0.5800382460476362      0.6492227885022279
3.6E9                    -0.5216678745846239      0.6951175745441429
3.63E9                   -0.45966774492729345     0.7357809305196289
3.66E9                   -0.3945054011710811      0.7709297954982226
3.69E9                   -0.32667001918691474     0.8003228079249922
3.72E9                   -0.2566686917145236      0.8237619060494824
3.75E9                   -0.1850226020415308      0.8410935976579446
3.78E9                   -0.11226311551773574     0.8522098924608312
3.81E9                   -0.03892781818504041     0.8570488929275353
3.84E9                   0.03444346792464597      0.8555950416479559
3.87E9                   0.10731266343034439      0.8478790256728628
3.9E9                    0.1791473749470292       0.8339773406020415
3.93E9                   0.24942477372240043      0.8140115196845786
3.96E9                   0.3176353809557675       0.7881470358378629
3.99E9                   0.3832867314370987       0.7565918873780864
4.02E9                   0.44590688877459805      0.7195948811079399
4.05E9                   0.50504778683983         0.6774436293401063
4.08E9                   0.5602883750240395       0.6304622796223145
4.11E9                   0.6112375472204271       0.5790089977872389
4.14E9                   0.6575368376586082       0.5234732255827028
4.17E9                   0.6988628689402412       0.4642727342326427
4.2E9                    0.7349295392010948       0.40185049518553345
4.23E9                   0.7654899364292795       0.3366713892432435
4.26E9                   0.7903379686653378       0.26921877597605864
4.29E9                   0.809309699845501        0.19999094666996597
4.32E9                   0.8222843829523069       0.12949748515383597
4.35E9                   0.8291851843211057       0.0582555621963817
4.38E9                   0.8299795957004662       -0.013213811015936784
4.41E9                   0.8246795328010702       -0.08438954479402799
4.44E9                   0.8133411208583031       -0.15475422364708957
4.47E9                   0.7960641689471668       -0.2237978252495378
4.5E9                    0.772991335933287        -0.2910213814619907
4.53E9                   0.7443069923353378       -0.3559405564565601
4.56E9                   0.7102357843085173       -0.4180891166733828
4.59E9                   0.6710409083609996       -0.47702226706836853
4.62E9                   0.6270221082441112       -0.5323198282733873
4.65E9                   0.578513408363116        -0.5835892302281235
4.68E9                   0.5258806007367921       -0.6304682994011498
4.71E9                   0.46951850501128123      -0.6726278186746882
4.74E9                   0.4098480228705368       -0.7097738414121951
4.77E9                   0.3473130094078656       -0.7416497438035398
4.8E9                    0.28237698483896345      -0.7680380018932593
4.83E9                   0.215519710285116        -0.7887616818113852
4.86E9                   0.1472336515911957       -0.8036856334141673
4.89E9                   0.07802035575321523      -0.8127173789232516
4.92E9                   0.00838676517513015      -0.8158076896301321
4.95E9                   -0.06115850397576015     -0.8129508453925326
4.98E9                   -0.13010889207346032     -0.8041845737326891
5.01E9                   -0.19796360706346938     -0.7895896677921075
5.04E9                   -0.2642312877544689      -0.7692892851063372
5.07E9                   -0.3284335908789395      -0.7434479320480092
5.1E9                    -0.39010867397561166     -0.7122701416891744
5.13E9                   -0.44881454665298287     -0.6759988558498944
5.16E9                   -0.5041322645280805      -0.6349135248092654
5.19E9                   -0.5556689415328685      -0.5893279408564903
5.22E9                   -0.6030605588711557      -0.5395878237170791
5.25E9                   -0.6459745508567347      -0.48606817749850795
5.28E9                   -0.684112150250574       -0.4291704393669091
5.31E9                   -0.7172104768972534      -0.3693194410498157
5.34E9                   -0.745044354760627       -0.30696020490799353
5.37E9                   -0.7674278433148194      -0.24255459788669467
5.4E9                    -0.784215470736746       -0.17657786853196822
5.43E9                   -0.7953031585647713      -0.10951509420593844
5.46E9                   -0.8006288303734378      -0.04185756746452788
5.49E9                   -0.8001727005059864      0.025900848586615174
5.52E9                   -0.7939572424659845      0.09326736585773424
5.55E9                   -0.782046840093213       0.15975388802542026
5.58E9                   -0.7645471279572322      0.22488056992959599
5.61E9                   -0.7416040303216174      0.2881792926536794
5.64E9                   -0.7134025103788085      0.34919702949203124
5.67E9                   -0.680165042998929       0.4074990803561809
5.7E9                    -0.6421498248157802      0.4626721543913713
5.73E9                   -0.5996487355252448      0.5143272816869525
5.76E9                   -0.55298506425324        0.5621025354052843
5.79E9                   -0.5025110161275815      0.6056655446758804
5.82E9                   -0.4486050167238945      0.6447157784533373
5.85E9                   -0.39166883604858893     0.6789865812490699
5.88E9                   -0.3321245570965138      0.7082469449236186
5.91E9                   -0.2704114164364782      0.7323030048989658
5.94E9                   -0.20698254421920634     0.7509992540045788
5.97E9                   -0.14230162987674505     0.7642194707236046
6.0E9                    -0.07683953779745566     0.7718873610306844
