% Model:              three_layers reality at 0.1mm.mph
% Version:            COMSOL 5.6.0.280
% Date:               Mar 2 2022, 15:44
% Table:              表格 1 - 全局计算 1
% freq (Hz)              real(emw.S11) (1)        imag(emw.S11) (1)
300000000                0.6314836513928022       -0.7587430178928832
330000000                0.5629674887027051       -0.8112506046544499
360000000                0.49015034898830323      -0.8575901438354854
390000000                0.41358479675812865      -0.8974112403427091
420000000                0.3338520232943267       -0.9304126536815773
450000000                0.2515574701121061       -0.9563446983208218
480000000                0.16732624908344607      -0.9750112393053686
510000000                0.08179839922007429      -0.9862712706217525
540000000                -0.004375983835147146    -0.9900400667607032
570000000                -0.09054170638768239     -0.9862898990050667
600000000                -0.1760434857579874      -0.9750503109671196
630000000                -0.2602309706674883      -0.956407950406442
660000000                -0.34246373332253344     -0.9305059576960544
690000000                -0.42211619514176535     -0.8975429141644027
720000000                -0.49858244573938937     -0.8577713574381592
750000000                -0.5712809178507586      -0.8114958737609842
780000000                -0.6396588798537924      -0.7590707812297781
810000000                -0.7031967099151297      -0.7008974208881749
840000000                -0.7614119166542505      -0.6374210762433378
870000000                -0.8138628733424602      -0.5691275449178809
900000000                -0.8601522350218153      -0.49653938894186544
930000000                -0.8999300099169901      -0.4202118936445438
960000000                -0.9328962599563516      -0.34072876697738796
990000000                -0.9588034077322085      -0.25869761420011866
1020000000               -0.9774581310005219      -0.17474522409488988
1050000000               -0.9887228289530262      -0.08951270513062798
1080000000               -0.9925166482862526      -0.003650511695748536
1110000000               -0.9888160611067454      0.08218659990831423
1140000000               -0.9776549902452635      0.16734464378041014
1170000000               -0.9591244817066914      0.2511754640423723
1200000000               -0.9333719278130213      0.3330417404799665
1230000000               -0.9005998484907529      0.41232189966190724
1260000000               -0.8610642418717754      0.4884148920581485
1290000000               -0.8150725190823878      0.5607447968151382
1320000000               -0.7629810415029636      0.6287652177567999
1350000000               -0.7051922820851815      0.6919634360701092
1380000000               -0.6421516352597809      0.7498642875764066
1410000000               -0.5743439027716296      0.8020337349733899
1440000000               -0.5022894851798233      0.8480821083188275
1470000000               -0.4265403110170982      0.887666989957955
1500000000               -0.34767553721148714     0.9204957234209316
1530000000               -0.26629705610563364     0.9463275289321939
1560000000               -0.1830248453433626      0.9649752116864356
1590000000               -0.09849219793609941     0.9763064523707222
1620000000               -0.013340869974327063    0.9802446729415719
1650000000               0.07178381591623868      0.9767694739699855
1680000000               0.15623787391296276      0.9659166433328954
1710000000               0.23938352775444383      0.9477777392417212
1740000000               0.320594016383669        0.9224992538235517
1770000000               0.39925829701178284      0.8902813664871294
1800000000               0.4747856111426327       0.8513762992652775
1830000000               0.5466098806819452       0.8060862890799712
1860000000               0.6141939029830414       0.7547611943768789
1890000000               0.6770333151791661       0.6977957561673093
1920000000               0.7346603005371716       0.635626535522825
1950000000               0.7866470113428918       0.5687285518382008
1980000000               0.8326086854278956       0.49761164776749855
2010000000               0.8722064356389805       0.4228166085216974
2040000000               0.9051496941918441       0.3449110645314303
2070000000               0.9311982965053517       0.2644852075556652
2100000000               0.950164191873466        0.18214735094397558
2130000000               0.9619127709630568       0.09851936517114605
2.16E9                   0.9663638026523991       0.014232019337123022
2.19E9                   0.9634919744800428       -0.07007974161280607
2.22E9                   0.9533270314066776       -0.15378155498465362
2.25E9                   0.9359535061577614       -0.2362444052240143
2.28E9                   0.9115100313985668       -0.3168493634215517
2.31E9                   0.8801882222845681       -0.394992260824615
2.34E9                   0.8422311242835634       -0.4700882406494197
2.37E9                   0.7979312423252388       -0.5415761207641786
2.4E9                    0.7476282005536498       -0.6089225062813408
2.43E9                   0.6917061053922439       -0.6716256268248108
2.46E9                   0.6305906715912528       -0.7292189203202089
2.49E9                   0.5647461220111055       -0.7812744051318408
2.52E9                   0.49467182771175633      -0.827405853808804
2.55E9                   0.420898652276124        -0.867271731836336
2.58E9                   0.34398499843611835      -0.9005778354795679
2.61E9                   0.2645125930348215       -0.9270795679333036
2.64E9                   0.18308206458353668      -0.9465838165708447
2.67E9                   0.1003083677360289       -0.958950415407656
2.7E9                    0.016816101287772868     -0.9640931886306433
2.73E9                   -0.06676524109209918     -0.9619805750631975
2.76E9                   -0.14980605144838943     -0.9526358340724269
2.79E9                   -0.23168138535772284     -0.9361368339091248
2.82E9                   -0.3117757022598191      -0.9126154246050353
2.85E9                   -0.3894875333958087      -0.8822563996658911
2.88E9                   -0.4642340422217146      -0.8452960534573899
2.91E9                   -0.5354554420825667      -0.8020203443353664
2.94E9                   -0.6026192368380459      -0.7527626766773898
2.97E9                   -0.6652242508489185      -0.6979013183305457
3.0E9                    -0.7228044164508511      -0.637856472978029
3.03E9                   -0.7749322885187866      -0.5730870301495484
3.06E9                   -0.8212222581130487      -0.5040870182512385
3.09E9                   -0.8613334394612666      -0.4313817887298895
3.12E9                   -0.8949722073270986      -0.35552396174166634
3.15E9                   -0.9218943646608958      -0.2770891659355256
3.18E9                   -0.9419069237175975      -0.19667160648440843
3.21E9                   -0.9548694870360195      -0.11487949705074028
3.24E9                   -0.9606952181265597      -0.032330392341654544
3.27E9                   -0.9593513951759807      0.05035354136059287
3.3E9                    -0.9508595445478152      0.13255028015530207
3.33E9                   -0.9352951542434571      0.21364268320522584
3.36E9                   -0.9127869708472807      0.29302318285714346
3.39E9                   -0.8835158867056858      0.3700983874076644
3.42E9                   -0.8477134272844286      0.44429356039885326
3.45E9                   -0.8056598517642289      0.5150569413644076
3.48E9                   -0.7576818830176474      0.5818638741087749
3.51E9                   -0.7041500862973818      0.644220709903476
3.54E9                   -0.6454759190514312      0.7016684548499548
3.57E9                   -0.5821084774023121      0.7537861327789828
3.6E9                    -0.5145309678837213      0.800193837662365
3.63E9                   -0.4432569354945522      0.8405554528903739
3.66E9                   -0.3688262813973345      0.8745810182518226
3.69E9                   -0.29180110493650613     0.9020287294610428
3.72E9                   -0.21276140548046457     0.9227065589752996
3.75E9                   -0.13230067995841424     0.9364734906730476
3.78E9                   -0.051021451773091545    0.9432403647652077
3.81E9                   0.03046923384340605      0.9429703330418905
3.84E9                   0.11156431422030338      0.9356789281802123
3.87E9                   0.19166118158054282      0.9214337540532163
3.9E9                    0.2701660943314243       0.9003538062595668
3.93E9                   0.3464985008522863       0.8726084331470771
3.96E9                   0.4200952516286554       0.8384159474204642
3.99E9                   0.4904146760062769       0.7980418978050192
4.02E9                   0.5569404993517184       0.751797009926515
4.05E9                   0.6191855746272239       0.7000348066254667
4.08E9                   0.676695400939559        0.6431489204702237
4.11E9                   0.7290514010027043       0.5815701150940679
4.14E9                   0.7758739303977447       0.5157630363363405
4.17E9                   0.8168249938411801       0.4462227184119278
4.2E9                    0.8516106474072743       0.3734708733479624
4.23E9                   0.8799830696056745       0.2980519940870012
4.26E9                   0.9017422883836613       0.2205293022933936
4.29E9                   0.9167375546243094       0.14148057174972237
4.32E9                   0.92486835547458         0.06149385758598426
4.35E9                   0.926085062871216        -0.01883683914483157
4.38E9                   0.920389214150476        -0.09891594230331188
4.41E9                   0.9078334230577539       -0.17815067765818715
4.44E9                   0.8885209211014374       -0.2559554261723584
4.47E9                   0.8626047312509328       -0.33175602323424647
4.5E9                    0.8302864784658          -0.4049939729286627
4.53E9                   0.791814844374628        -0.475130546352062
4.56E9                   0.7474836764635377       -0.5416507332814497
4.59E9                   0.6976297652601041       -0.6040670173110838
4.62E9                   0.6426303059611819       -0.661922946025597
4.65E9                   0.5829000638275075       -0.7147964695090079
4.68E9                   0.5188882647531138       -0.7623030230458802
4.71E9                   0.45107523431832636      -0.8040983320905355
4.74E9                   0.3799688094220317       -0.8398809201638975
4.77E9                   0.3061005475515948       -0.869394301976427
4.8E9                    0.2300217592241708       -0.8924288455809146
4.83E9                   0.15229939069536053      -0.9088232881818726
4.86E9                   0.0735117857774803       -0.9184658915248202
4.89E9                   -0.00575564180116448     -0.9212952245996366
4.92E9                   -0.08491479157634085     -0.917300564295681
4.95E9                   -0.16337927916863199     -0.9065219084971821
4.98E9                   -0.24056882168200922     -0.8890496006718074
5.01E9                   -0.31591356871531606     -0.8650235698539115
5.04E9                   -0.3888583432540518      -0.8346321945997774
5.07E9                   -0.458866759017425       -0.7981108035417424
5.1E9                    -0.5254251839461709      -0.7557398281369402
5.13E9                   -0.5880465226588102      -0.707842624886946
5.16E9                   -0.6462737933183078      -0.6547829847504797
5.19E9                   -0.6996834757683732      -0.596962347177669
5.22E9                   -0.7478886074310614      -0.5348167365685893
5.25E9                   -0.7905416025863023      -0.4688134406310449
5.28E9                   -0.8273367700973776      -0.39944745385461244
5.31E9                   -0.8580125060124498      -0.32723771444953587
5.34E9                   -0.8823531415891801      -0.25272316766204883
5.37E9                   -0.900190433079203       -0.1764586913086484
5.4E9                    -0.9114046858703162      -0.09901091949086349
5.43E9                   -0.915925510539085       -0.020953998440276084
5.46E9                   -0.9137322112812405      0.057134694304819114
5.49E9                   -0.9048538083049711      0.13467883868924418
5.52E9                   -0.8893686959043479      0.21110744111088897
5.55E9                   -0.8674039380905031      0.2858590556919503
5.58E9                   -0.8391342044857613      0.35838592870344677
5.61E9                   -0.8047803510246969      0.42815803540662856
5.64E9                   -0.7646076530717393      0.49466697683307975
5.67E9                   -0.718923702689743       0.557429703182568
5.7E9                    -0.6680759870880422      0.6159920304686739
5.73E9                   -0.6124491709628725      0.6699319191863606
5.76E9                   -0.552462110633895       0.7188624879637479
5.79E9                   -0.48856463093601765     0.7624347413418825
5.82E9                   -0.42123409606249046     0.8003399971483426
5.85E9                   -0.3509718032638789      0.8323120036923579
5.88E9                   -0.2782992251587455      0.858128739056189
5.91E9                   -0.20375412464384368     0.8776138843767196
5.94E9                   -0.12788656668544435     0.8906379620432232
5.97E9                   -0.05125485334319127     0.8971191296454237
6.0E9                    0.02557858860496456      0.8970236220229648
