% Model:              three_layers reality at 0.1mm.mph
% Version:            COMSOL 5.6.0.280
% Date:               Mar 2 2022, 15:50
% Table:              表格 1 - 全局计算 1
% freq (Hz)              real(emw.S11) (1)        imag(emw.S11) (1)
300000000                0.6305240162009653       -0.7593305995613998
330000000                0.5618705301484388       -0.811793354727424
360000000                0.488918798201372        -0.8580681736484701
390000000                0.4122236223271964       -0.8978050774883205
420000000                0.3323683828739961       -0.9307034123117441
450000000                0.24996065662859018      -0.956514260743591
480000000                0.16562762595411906      -0.9750424455499567
510000000                0.080011319330837        -0.9861481128411089
540000000                -0.006236277587774276    -0.9897478845801786
570000000                -0.09245820087562517     -0.9858155722500199
600000000                -0.17799753846849084     -0.9743824461820406
630000000                -0.2622024711498087      -0.9555370578656373
660000000                -0.3444312855128917      -0.9294246156164814
690000000                -0.4240573184227124      -0.8962459173828841
720000000                -0.500473794125789       -0.8562558476857817
750000000                -0.5730985149262674      -0.8097614492613805
780000000                -0.6413783675217026      -0.7571195834415616
810000000                -0.7047936085516331      -0.6987341965502302
840000000                -0.7628618940774169      -0.6350532131473137
870000000                -0.8151420196463092      -0.566565080375807
900000000                -0.8612373405938382      -0.49379498982626374
930000000                -0.9007988434390364      -0.4173008076303238
960000000                -0.9335278432907282      -0.33766874491947196
990000000                -0.9591782848128763      -0.25550880333517006
1020000000               -0.9775586273721653      -0.17145003306208892
1050000000               -0.9885332990473803      -0.08613564155458409
1080000000               -0.9920237075404394      -2.1799319919248796E-4
1110000000               -0.9880088000280364      0.08564645942144265
1140000000               -0.9765251678135679      0.17080227094442738
1170000000               -0.957666695660789       0.2546000838012075
1200000000               -0.9315837595680514      0.3364016525952507
1230000000               -0.8984819807472836      0.4155847711958789
1260000000               -0.8586205471384049      0.49154806329875095
1290000000               -0.8123101177975495      0.5637155974309126
1320000000               -0.759910328575193       0.6315412903021114
1350000000               -0.7018269211177889      0.6945130635460881
1380000000               -0.638508519933157       0.7521567218705342
1410000000               -0.5704430854134642      0.8040395227230435
1440000000               -0.4981540726492737      0.8497734110279389
1470000000               -0.4221963284257549      0.8890178950960399
1500000000               -0.3431517604504253      0.9214825432428868
1530000000               -0.2616248143819577      0.9469290839419774
1560000000               -0.17823779511128388     0.9651730958212076
1590000000               -0.09362607012564422     0.9760852770432598
1620000000               -0.008433192616761254    0.9795922873396372
1650000000               0.07669401758711843      0.9756771592240954
1680000000               0.16111039707637947      0.9643792783427232
1710000000               0.2441773287901956       0.9457939362547982
1740000000               0.3252675618548688       0.9200714621032294
1770000000               0.4037699258164503       0.8874159426896221
1800000000               0.47909390463071855      0.8480835434510188
1830000000               0.5506740375049279       0.8023804455662416
1860000000               0.6179741153332444       0.7506604169525594
1890000000               0.680491142998574        0.6933220375473698
1920000000               0.7377590403614847       0.6308056011746339
1950000000               0.7893520564279509       0.5635897186295694
1980000000               0.8348878737632944       0.4921876483179502
2010000000               0.8740303826768628       0.4171433823158317
2040000000               0.9064921071463431       0.3390275172508565
2070000000               0.9320362672483569       0.25843294041814846
2100000000               0.9504784656952037       0.17597036207122166
2130000000               0.9616879887112983       0.09226372538581244
2.16E9                   0.9655887141609448       0.007945524794646181
2.19E9                   0.9621596215621978       -0.07634793714111406
2.22E9                   0.951434899165649        -0.15998132593530945
2.25E9                   0.933503641597861        -0.24232505590666098
2.28E9                   0.9085091281756775       -0.32276004420098775
2.31E9                   0.8766476695406429       -0.40068239783699977
2.34E9                   0.8381670159071586       -0.4755079777348117
2.37E9                   0.7933643414237587       -0.5466767703323282
2.4E9                    0.7425838540966048       -0.6136570022358463
2.43E9                   0.6862141072191883       -0.675948969346466
2.46E9                   0.6246850770998968       -0.7330886022447779
2.49E9                   0.5584650221216363       -0.7846508130705185
2.52E9                   0.4880570898739473       -0.8302526424812169
2.55E9                   0.4139956330857626       -0.8695561733444676
2.58E9                   0.3368422291503368       -0.9022711449756516
2.61E9                   0.2571814370556199       -0.9281572053188765
2.64E9                   0.1756163465410877       -0.9470257615144352
2.67E9                   0.09276397485082005      -0.9587414119495379
2.7E9                    0.009250558938051335     -0.963222955454771
2.73E9                   -0.0742932162600571      -0.9604439778686658
2.76E9                   -0.15723701737996018     -0.9504330171756094
2.79E9                   -0.2389556551436469      -0.9332733087875984
2.82E9                   -0.3188338351170539      -0.9091021137056002
2.85E9                   -0.3962708316906571      -0.8781096342923306
2.88E9                   -0.4706850498890801      -0.8405375251095824
2.91E9                   -0.5415184401204381      -0.7966770092065447
2.94E9                   -0.6082407311765229      -0.7468666136070949
2.97E9                   -0.6703534482427647      -0.6914895408131857
3.0E9                    -0.7273936838847508      -0.6309706963931613
3.03E9                   -0.778937591923555       -0.5657733956655675
3.06E9                   -0.8246035761898078      -0.4963957753865307
3.09E9                   -0.8640551486767513      -0.42336693890261706
3.12E9                   -0.897003434355105       -0.34724286554748485
3.15E9                   -0.923209302837551       -0.2686021172044309
3.18E9                   -0.9424851103406461      -0.188041376613691
3.21E9                   -0.9546960387462811      -0.1061708532702445
3.24E9                   -0.9597610219384975      -0.023609593978482973
3.27E9                   -0.9576532531708776      0.05901926447300802
3.3E9                    -0.9484002706523761      0.14109326265346678
3.33E9                   -0.9320836219658137      0.22199536816907336
3.36E9                   -0.9088381112787168      0.3011186701475819
3.39E9                   -0.8788506365367645      0.37787098181521445
3.42E9                   -0.8423586269846249      0.45167931509404013
3.45E9                   -0.7996480944544317      0.5219941921936234
3.48E9                   -0.7510513149394277      0.5882937603348755
3.51E9                   -0.6969441600828157      0.6500876771479831
3.54E9                   -0.6377431013305176      0.7069207360422796
3.57E9                   -0.5739019126160821      0.7583762030014797
3.6E9                    -0.5059081004642566      0.8040788389123921
3.63E9                   -0.43427909302799395     0.8436975848090633
3.66E9                   -0.35955822170072393     0.876947891096989
3.69E9                   -0.2823105304488306      0.9035936757580798
3.72E9                   -0.20311844884118885     0.9234489005530764
3.75E9                   -0.12257736500778425     0.9363787581774352
3.78E9                   -0.04129113458739227     0.9423004671592242
3.81E9                   0.04013243884378018      0.9411836750922599
3.84E9                   0.12108611780504308      0.9330504745490011
3.87E9                   0.2009677074044136       0.9179750392991327
3.9E9                    0.27918446519982293      0.8960828908401111
3.93E9                   0.3551574182508446       0.8675498062761648
3.96E9                   0.4283255634139398       0.8326003783717572
3.99E9                   0.4981499278115372       0.7915062377590805
4.02E9                   0.5641174658121691       0.7445839467433975
4.05E9                   0.6257447670236704       0.6921925750174189
4.08E9                   0.6825815482274304       0.6347309699885687
4.11E9                   0.7342139014399994       0.5726347381827733
4.14E9                   0.7802672708933791       0.5063729587740257
4.17E9                   0.8204091342355014       0.43644465439932056
4.2E9                    0.8543513667088277       0.36337504786782104
4.23E9                   0.8818522713070724       0.28771163541325817
4.26E9                   0.9027182620908687       0.21002010796047973
4.29E9                   0.9168051915059188       0.13088015168084632
4.32E9                   0.9240193154172875       0.05088115838213242
4.35E9                   0.9243178916543222       -0.029382124514039095
4.38E9                   0.917709409395895        -0.10931397502771685
4.41E9                   0.9042534481293103       -0.18832207943837728
4.44E9                   0.8840601664937918       -0.26582188696893544
4.47E9                   0.8572894233392607       -0.3412409060039407
4.5E9                    0.8241495357856881       -0.4140229109499653
4.53E9                   0.7848956819057957       -0.4836320287176822
4.56E9                   0.7398279587031951       -0.5495566741151444
4.59E9                   0.6892891092215593       -0.611313304243423
4.62E9                   0.6336619356499806       -0.6684499634278405
4.65E9                   0.5733664181575151       -0.7205495920730426
4.68E9                   0.5088565613981236       -0.7672330753479941
4.71E9                   0.44061699244913693      -0.8081620100321457
4.74E9                   0.36915933476098567      -0.8430411704717508
4.77E9                   0.29501838352895754      -0.8716206563573003
4.8E9                    0.21874810835931235      -0.8936977065288106
4.83E9                   0.14091751043650122      -0.9091181638905417
4.86E9                   0.06210636317605456      -0.9177775777004847
4.89E9                   -0.017099132080650926    -0.9196219312625908
4.92E9                   -0.09611074131607876     -0.9146479859121396
4.95E9                   -0.17434260783990593     -0.9029032360346423
4.98E9                   -0.25121563979175504     -0.8844854744825508
5.01E9                   -0.3261618377940993      -0.8595419727121435
5.04E9                   -0.3986285268019238      -0.8282682847553245
5.07E9                   -0.4680824584939501      -0.7909066883357629
5.1E9                    -0.5340137538225604      -0.747744279516552
5.13E9                   -0.5959396587379163      -0.699110738967428
5.16E9                   -0.6534080889020739      -0.6453757883235016
5.19E9                   -0.7060009407406354      -0.5869463547002027
5.22E9                   -0.7533371459989957      -0.5242634614972088
5.25E9                   -0.7950754459096553      -0.4577988651672164
5.28E9                   -0.8309168603910243      -0.38805146129839935
5.31E9                   -0.8606068290047013      -0.3155434883637188
5.34E9                   -0.8839370042680157      -0.24081656250105754
5.37E9                   -0.9007466840020805      -0.16442757946131725
5.4E9                    -0.9109238757131348      -0.0869445203042919
5.43E9                   -0.9144059912786269      -0.008942195143663529
5.46E9                   -0.9111801732292307      0.06900204358124111
5.49E9                   -0.9012832551018438      0.1463125896564058
5.52E9                   -0.8848013583711793      0.22241984593929126
5.55E9                   -0.861869128467234       0.29676443405465197
5.58E9                   -0.8326686130172214      0.36880132225419754
5.61E9                   -0.7974277871131878      0.4380038411739106
5.64E9                   -0.756418733288602       0.5038675554406368
5.67E9                   -0.7099554880157607      0.5659139579150806
5.7E9                    -0.6583915717384379      0.6236939533986616
5.73E9                   -0.6021172253603095      0.6767911004136912
5.76E9                   -0.5415563814536702      0.7248245839608023
5.79E9                   -0.4771634017136533      0.7674518984290103
5.82E9                   -0.40941961254501424     0.8043712263940295
5.85E9                   -0.3388296682496315      0.8353235041225251
5.88E9                   -0.2659177679625449      0.8600941667827272
5.91E9                   -0.19122375033039846     0.8785145660582178
5.94E9                   -0.11529909008523838     0.890463051693196
5.97E9                   -0.038702822649077366    0.8958657082326495
6.0E9                    0.038002574145287765     0.8946967395838471
