% Model:              three_layers reality at 0.1mm.mph
% Version:            COMSOL 5.6.0.280
% Date:               Feb 23 2022, 11:34
% Table:              表格 1 - 全局计算 1
% freq (Hz)              real(emw.S11) (1)        imag(emw.S11) (1)
300000000                0.43891941602918544      -0.8367302675736696
330000000                0.34678691596887323      -0.8767856264731315
360000000                0.25124431693117993      -0.9068221816110675
390000000                0.15335167080542825      -0.9265694155824348
420000000                0.054192607117089335     -0.9358662274720828
450000000                -0.04513770430991731     -0.9346637976947192
480000000                -0.1435448158405743      -0.9230268743215538
510000000                -0.2399473121029761      -0.901133533559203
540000000                -0.33328899626053776     -0.8692734675040467
570000000                -0.42255079096758846     -0.8278448579850246
600000000                -0.5067621998609285      -0.7773499036127869
630000000                -0.5850121854816432      -0.7183890772735979
660000000                -0.6564593290387808      -0.6516542021653282
690000000                -0.7203411488599667      -0.5779204452479332
720000000                -0.7759824661516547      -0.4980373377217707
750000000                -0.8228027200988332      -0.41291894172174565
780000000                -0.8603221483791634      -0.32353329117760826
810000000                -0.8881667643322297      -0.23089124207026282
840000000                -0.9060720778101546      -0.1360348730075272
870000000                -0.9138855231632974      -0.040025581083135864
900000000                -0.9115675744523415      0.05606797989704995
930000000                -0.8991915448292052      0.15118197142324735
960000000                -0.8769420836130568      0.24426930673592448
990000000                -0.8451124008606613      0.3343113095372998
1020000000               -0.8041002648092825      0.4203289581456804
1050000000               -0.7544028323525919      0.5013935851071948
1080000000               -0.6966103863880858      0.5766369112784079
1110000000               -0.6313990662939871      0.6452603033779223
1140000000               -0.5595226889182073      0.7065431552008657
1170000000               -0.4818037668901141      0.759850305442664
1200000000               -0.3991238390764258      0.804638418026284
1230000000               -0.31241323415234384     0.8404612649401545
1260000000               -0.22264039280336265     0.8669738657982594
1290000000               -0.13080087686939415     0.8839354528456953
1320000000               -0.03790619485478839     0.8912112445933764
1350000000               0.05502742728421808      0.8887730255378822
1380000000               0.1469902032991902       0.8766985432590272
1410000000               0.2369897483248682       0.8551697474817449
1440000000               0.3240617268823055       0.824469908271475
1470000000               0.4072800746124635       0.7849796622816778
1500000000               0.4857666887994098       0.737172046770734
1530000000               0.5587004905535363       0.6816065909552734
1560000000               0.6253257706596653       0.6189225428993459
1590000000               0.6849597405368559       0.549831317853917
1620000000               0.7369992200409176       0.4751082603622623
1650000000               0.7809264044087194       0.3955838177071771
1680000000               0.8163136634008833       0.31213422657668566
1710000000               0.8428273369310322       0.22567181763260813
1740000000               0.8602305025383225       0.13713504474821045
1770000000               0.8683847013754399       0.04747834619434296
1800000000               0.8672506205125416       -0.04233805520743703
1830000000               0.8568877404630385       -0.13135830749325003
1860000000               0.8374529678085519       -0.21864093801724604
1890000000               0.8091982834912117       -0.30326861639204383
1920000000               0.7724674477069314       -0.3843575791652136
1950000000               0.7276918121652103       -0.4610666308469264
1980000000               0.6753852991663202       -0.5326056459463944
2010000000               0.6161386139074004       -0.5982435090591942
2040000000               0.5506127596563118       -0.6573154462963121
2070000000               0.4795319225157398       -0.7092297206784149
2100000000               0.4036757784369007       -0.7534736857907616
2130000000               0.3238712437680164       -0.7896192105683011
2.16E9                   0.24098363490312327      -0.8173274912276947
2.19E9                   0.1559071216212262       -0.8363532292013262
2.22E9                   0.06955427194984978      -0.8465480372431433
2.25E9                   -0.01715553958979186     -0.8478626997514497
2.28E9                   -0.10330891874456843     -0.8403475692706484
2.31E9                   -0.18801195838263        -0.8241500929464707
2.34E9                   -0.27040307857876494     -0.799508624940664
2.37E9                   -0.34966297553986564     -0.7667427459351203
2.4E9                    -0.4250196747171471      -0.7262421742080108
2.43E9                   -0.4957486649538894      -0.6784577672272742
2.46E9                   -0.5611709301781941      -0.6238973767108761
2.49E9                   -0.620653013277539       -0.5631263357956454
2.52E9                   -0.6736116522669537      -0.4967694273309595
2.55E9                   -0.7195224355344272      -0.42551068006946685
2.58E9                   -0.7579299041796285      -0.3500891520518174
2.61E9                   -0.7884565732043213      -0.2712910372007084
2.64E9                   -0.8108095518999534      -0.18993952740922948
2.67E9                   -0.8247845968075519      -0.10688383649844405
2.7E9                    -0.8302680135226743      -0.022988279113025093
2.73E9                   -0.8272369288258457      0.060878194509189604
2.76E9                   -0.8157583407602312      0.143851901615069
2.79E9                   -0.7959872032717663      0.22508378344975238
2.82E9                   -0.7681636875173832      0.30374825345976625
2.85E9                   -0.7326096951350034      0.37905155824834774
2.88E9                   -0.6897246677659785      0.45023964656950693
2.91E9                   -0.6399807278990077      0.5166055200183378
2.94E9                   -0.583917188096687       0.577496025094026
2.97E9                   -0.522134472678322       0.6323180391149967
3.0E9                    -0.45528750453486266     0.680544000788944
3.03E9                   -0.38407861824359835     0.7217167384937696
3.06E9                   -0.30925006818381356     0.7554535545160289
3.09E9                   -0.2315762064684523      0.7814495307253435
3.12E9                   -0.15185540986767254     0.7994800298875506
3.15E9                   -0.07090183715940608     0.8094023764014247
3.18E9                   0.010462901560116401     0.8111567099148598
3.21E9                   0.09141808427170517      0.8047660142608386
3.24E9                   0.1711521496631283       0.79033533146213
3.27E9                   0.24887083241102756      0.7680501755228047
3.3E9                    0.32380509478448494      0.7381741629901132
3.33E9                   0.3952187908529709       0.701045877276863
3.36E9                   0.4624159987614535       0.6570749825658778
3.39E9                   0.5247479518499818       0.6067376026807437
3.42E9                   0.581619490810738        0.5505709828170022
3.45E9                   0.6324949476840594       0.48916746009513346
3.48E9                   0.6769033611374177       0.4231677844311899
3.51E9                   0.714442914763366        0.35325385535707626
3.54E9                   0.7447844911292911       0.2801409719424465
3.57E9                   0.7676742483299454       0.20456972810854657
3.6E9                    0.7829351553399881       0.12729771756205402
3.63E9                   0.7904674656169167       0.04909123350335057
3.66E9                   0.7902481588805887       -0.029282847784715505
3.69E9                   0.7823294300237124       -0.10706482496925691
3.72E9                   0.7668363442704753       -0.18350942560197883
3.75E9                   0.74396380683996         -0.25789244713423093
3.78E9                   0.7139730158784456       -0.32951671717145836
3.81E9                   0.6771875813152086       -0.3977173528807226
3.84E9                   0.6339894949249182       -0.46186635826136757
3.87E9                   0.584815115698252        -0.5213766674533197
3.9E9                    0.5301512766835929       -0.575705808024925
3.93E9                   0.47053152390626496      -0.6243593949098194
3.96E9                   0.4065323840247526       -0.6668946483540811
3.99E9                   0.3387694608240862       -0.7029240496406222
4.02E9                   0.26789311737171406      -0.7321191240280571
4.05E9                   0.19458352911154703      -0.7542142088943454
4.08E9                   0.11954498485586047      -0.7690099676529598
4.11E9                   0.04349943718108662      -0.776376373679432
4.14E9                   -0.03282057649565147     -0.7762549171429544
4.17E9                   -0.1086794365685888      -0.7686598648979539
4.2E9                    -0.18334612791855617     -0.7536785020554774
4.23E9                   -0.2561018854002958      -0.7314703757716736
4.26E9                   -0.3262476220832433      -0.7022656266705772
4.29E9                   -0.39311102739935583     -0.6663625216391742
4.32E9                   -0.456053279420608       -0.6241242958271498
4.35E9                   -0.5144753514524519      -0.5759753833569075
4.38E9                   -0.5678239030164665      -0.5223970818432394
4.41E9                   -0.6155967334111875      -0.4639226700427432
4.44E9                   -0.6573477530010743      -0.40113198934468663
4.47E9                   -0.692691405006524       -0.33464550899205037
4.5E9                    -0.7213064573239905      -0.26511791692083053
4.53E9                   -0.7429390835610814      -0.19323130590614085
4.56E9                   -0.7574051652926593      -0.1196880514497212
4.59E9                   -0.7645917713875323      -0.045203498521527455
4.62E9                   -0.7644578020273164      0.02950141539640165
4.65E9                   -0.7570338200159363      0.10370747703454142
4.68E9                   -0.742421123020797       0.1767043487745635
4.71E9                   -0.7207901289213916      0.2477974815301427
4.74E9                   -0.6923781453262738      0.3163147519759056
4.77E9                   -0.6574865727846773      0.3816128146612077
4.8E9                    -0.6164775576387888      0.44308316650171825
4.83E9                   -0.5697700803247863      0.5001579028796342
4.86E9                   -0.5178354539799801      0.5523151077780823
4.89E9                   -0.461192224561612       0.5990837804877044
4.92E9                   -0.4004005042415415      0.6400481752892929
4.95E9                   -0.3360558228053083      0.6748514293566721
4.98E9                   -0.26878263220056686     0.7031983805911142
5.01E9                   -0.19922763416674735     0.7248575263897451
5.04E9                   -0.12805311064461158     0.7396621371327842
5.07E9                   -0.055930416645062486    0.7475106017959353
5.1E9                    0.016466254316388707     0.7483661327058866
5.13E9                   0.08846579279383704      0.742255976277342
5.16E9                   0.15940581795954697      0.7292702552899301
5.19E9                   0.22863812804435302      0.7095605071123446
5.22E9                   0.2955340433444841       0.6833379010777851
5.25E9                   0.3594896772725191       0.650871052130164
5.28E9                   0.41993108631155285      0.6124833313857501
5.31E9                   0.47631917322261563      0.5685496200141825
5.34E9                   0.5281541905186037       0.5194925402150198
5.37E9                   0.5749797283994322       0.46577828213429345
5.4E9                    0.6163861541400412       0.40791218648557886
5.43E9                   0.6520135577586785       0.34643422280089703
5.46E9                   0.681554313521022        0.2819144365355258
5.49E9                   0.7047553708011738       0.21494835649514946
5.52E9                   0.7214203464292954       0.1461522885769425
5.55E9                   0.7314114234998667       0.07615839116688662
5.58E9                   0.7346509905445672       0.005609435695378611
5.61E9                   0.7311228971458466       -0.06484680278656062
5.64E9                   0.720873169093829        -0.13456351500278832
5.67E9                   0.7040100265550561       -0.20290109940322976
5.7E9                    0.6807030884463459       -0.2692335151466467
5.73E9                   0.6511817239169577       -0.33295453573951006
5.76E9                   0.6157326108793104       -0.39348369238039305
5.79E9                   0.5746966477863701       -0.450271753941472
5.82E9                   0.5284654003453316       -0.5028056893392399
5.85E9                   0.47747723211159204      -0.5506131546347434
5.88E9                   0.4222131860900959       -0.59326659648429
5.91E9                   0.3631925985631703       -0.6303870477987547
5.94E9                   0.30096837794812625      -0.6616476290852575
5.97E9                   0.23612188505446793      -0.6867766975999046
6.0E9                    0.16925739338755827      -0.7055605374610057
