% Model:              three_layers reality at 0.1mm.mph
% Version:            COMSOL 5.6.0.280
% Date:               Feb 23 2022, 11:33
% Table:              表格 1 - 全局计算 1
% freq (Hz)              real(emw.S11) (1)        imag(emw.S11) (1)
300000000                0.41647314199138585      -0.7957527758381336
330000000                0.33013088656060213      -0.8324873520909087
360000000                0.2407801781136879       -0.860098332784864
390000000                0.14934821638090234      -0.8783329059434788
420000000                0.05679122240117405      -0.8870357684605321
450000000                -0.03591840471907357     -0.8861518891500947
480000000                -0.12780434244019007     -0.875727732967722
510000000                -0.2178981420155898      -0.8559110993470802
540000000                -0.3052506005791118      -0.8269496720142826
570000000                -0.3889426821788874      -0.7891883540710765
600000000                -0.4680959317612315      -0.743065454539268
630000000                -0.5418823083241233      -0.6891077932632925
660000000                -0.6095333560203996      -0.6279247962320565
690000000                -0.6703486303758406      -0.5602016603193852
720000000                -0.7237032994429886      -0.48669167455924733
750000000                -0.7690548455590168      -0.40820779265753376
780000000                -0.8059488009874256      -0.32561355925937296
810000000                -0.8340234607759767      -0.2398134986498326
840000000                -0.8530135269425441      -0.15174308033928502
870000000                -0.8627526502034458      -0.0623583797753154
900000000                -0.8631748479617581      0.027374444333589532
930000000                -0.8543147905298959      0.11648973381823431
960000000                -0.8363069606175396      0.20403285371612526
990000000                -0.8093837043761933      0.28907053323513576
1020000000               -0.7738722051511098      0.37070090798456923
1050000000               -0.7301904234608165      0.44806315104695743
1080000000               -0.6788420584892729      0.5203465864972786
1110000000               -0.6204105972380884      0.5867991864779915
1140000000               -0.5555525273796628      0.6467353613689558
1170000000               -0.4849897986210991      0.6995429621117268
1200000000               -0.4095016251624454      0.7446894238960091
1230000000               -0.32991572767274946     0.7817269918471904
1260000000               -0.24709911879918842     0.8102969802655651
1290000000               -0.16194853916822788     0.8301330293358284
1320000000               -0.07538065364041309     0.8410633348376497
1350000000               0.011677882119183814     0.8430118386380022
1380000000               0.09830037456471406      0.8359983793867972
1410000000               0.18356995670181356      0.8201378145412926
1440000000               0.2665892586499627       0.7956381358366132
1470000000               0.3464897830142457       0.7627976109519612
1500000000               0.4224408888308876       0.7220009940199739
1530000000               0.493658293690836        0.6737148568279326
1560000000               0.5594120104496814       0.6184821009381425
1590000000               0.6190336423567246       0.5569157184941527
1620000000               0.6719229684662086       0.4896918761248621
1650000000               0.7175537597919139       0.4175424020268954
1680000000               0.755478775552838        0.341246761164312
1710000000               0.7853338982513215       0.2616236071807443
1740000000               0.8068413757379397       0.1795220025896406
1770000000               0.8198121481968731       0.09581240055468697
1800000000               0.8241472477312058       0.011377482522167135
1830000000               0.8198382681579286       -0.07289705439742422
1860000000               0.8069669123850659       -0.1561316674632569
1890000000               0.78570363461737         -0.2374620056296923
1920000000               0.7563054041533857       -0.31604772790769653
1950000000               0.7191126267593          -0.3910810220727337
1980000000               0.6745452680515588       -0.46179475062734937
2010000000               0.6230982300735143       -0.5274701614264273
2040000000               0.5653360362330571       -0.5874441133542305
2070000000               0.5018868781862456       -0.6411157840557473
2100000000               0.43343606722640565      -0.6879528451828336
2130000000               0.3607189067569662       -0.7274971066258652
2.16E9                   0.2845129551481101       -0.7593696344511567
2.19E9                   0.20562957883404442      -0.7832753158412298
2.22E9                   0.12490462025392582      -0.7990067445422806
2.25E9                   0.04318798068628418      -0.8064470970366288
2.28E9                   -0.038667939515251784    -0.8055713707560328
2.31E9                   -0.11982054486169424     -0.7964450992847475
2.34E9                   -0.1994489058017802      -0.779219783511647
2.37E9                   -0.27676324733780966     -0.7541251780867951
2.4E9                    -0.3510102828479612      -0.7214601810194685
2.43E9                   -0.42147428102706885     -0.6815853403336984
2.46E9                   -0.48747621830914833     -0.6349194340935957
2.49E9                   -0.5483745911146267      -0.581940045495612
2.52E9                   -0.6035701745823263      -0.5231854761895168
2.55E9                   -0.6525143531388452      -0.45925480680128006
2.58E9                   -0.6947188352843625      -0.3908044190000456
2.61E9                   -0.7297645274735283      -0.3185411890054542
2.64E9                   -0.7573083569977364      -0.24321356211253087
2.67E9                   -0.7770878428679772      -0.16560173689587043
2.7E9                    -0.7889237426825899      -0.08650775959645575
2.73E9                   -0.7927212133423861      -0.0067459016955189275
2.76E9                   -0.7884698338432443      0.07286656872858642
2.79E9                   -0.77624270980817        0.15151822262199113
2.82E9                   -0.756194779786829       0.22841193635938076
2.85E9                   -0.7285603844325035      0.30277299899819554
2.88E9                   -0.6936501322440773      0.3738568477908589
2.91E9                   -0.6518470875715364      0.4409564001040706
2.94E9                   -0.6036023088672477      0.5034089368605014
2.97E9                   -0.5494297721059088      0.560602485754006
3.0E9                    -0.48990072286561814     0.6119816504861436
3.03E9                   -0.4256375091698226      0.6570528338927589
3.06E9                   -0.3573069550127618      0.6953888072305126
3.09E9                   -0.28561334116182374     0.7266325842233268
3.12E9                   -0.2112910648588942      0.7505005663493477
3.15E9                   -0.13509705335024638     0.7667849345928759
3.18E9                   -0.05780300733100888     0.7753552719800546
3.21E9                   0.01981245041908455      0.7761594097895135
3.24E9                   0.09697164850905704      0.7692234976391706
3.27E9                   0.17290569330772332      0.7546513029286589
3.3E9                    0.24686218241695848      0.7326227481086722
3.33E9                   0.31811274123094474      0.7033916951592395
3.36E9                   0.38596031795137264      0.6672829864597107
3.39E9                   0.4497461681026847       0.6246887514886885
3.42E9                   0.5088564520946027       0.5760639914715403
3.45E9                   0.5627283592918338       0.5219214614101987
3.48E9                   0.6108556616418359       0.4628258827360832
3.51E9                   0.6527935925635511       0.39938754108883706
3.54E9                   0.688162946508038        0.3322553517446534
3.57E9                   0.7166533055832197       0.26210950675925676
3.6E9                    0.7380253239654334       0.18965384733703272
3.63E9                   0.7521120373216917       0.11560812558304057
3.66E9                   0.7588192080229569       0.040700326102491864
3.69E9                   0.7581247599672114       -0.03434079139101049
3.72E9                   0.7500773931363018       -0.10879278899352958
3.75E9                   0.7347944956563407       -0.18194617628309706
3.78E9                   0.7124594923944717       -0.2531104865757599
3.81E9                   0.6833187861833864       -0.3216197644808061
3.84E9                   0.6476784567120704       -0.3868374758742598
3.87E9                   0.6059008714810141       -0.44816091382724754
3.9E9                    0.5584013198244012       -0.5050252376043758
3.93E9                   0.5056447013266848       -0.5569073237354694
3.96E9                   0.4481421984897779       -0.6033296043754419
3.99E9                   0.38644777099524713      -0.6438640076119011
4.02E9                   0.32115425906317885      -0.6781360088854916
4.05E9                   0.25288889650678303      -0.7058286837046583
4.08E9                   0.1823081067250552       -0.7266865570008698
4.11E9                   0.11009156288946792      -0.7405190008691984
4.14E9                   0.03693560341193063      -0.7472029475950227
4.17E9                   -0.036453823528723464    -0.7466847469501747
4.2E9                    -0.10936847336887486     -0.73898108257022
4.23E9                   -0.18110516846912345     -0.7241789464775654
4.26E9                   -0.250973042106311       -0.7024347336441994
4.29E9                   -0.31830054851038253     -0.6739725495022686
4.32E9                   -0.3824421760046828      -0.6390818228933964
4.35E9                   -0.4427848348491753      -0.5981142946968238
4.38E9                   -0.49875390288047233     -0.5514804226121087
4.41E9                   -0.5498189032572777      -0.49964521905739867
4.44E9                   -0.5954987686946888      -0.443123530236168
4.47E9                   -0.6353666259559158      -0.3824747716396032
4.5E9                    -0.6690540212431858      -0.3182971546015072
4.53E9                   -0.6962545052561444      -0.2512214639188973
4.56E9                   -0.7167265068078842      -0.18190447178846758
4.59E9                   -0.7302954442769155      -0.11102209379316455
4.62E9                   -0.736855052405123       -0.039262404262837065
4.65E9                   -0.7363679338840878      0.03268137223013219
4.68E9                   -0.7288653746580063      0.10411779108083635
4.71E9                   -0.7144464810554869      0.17436396440199103
4.74E9                   -0.6932766988685954      0.24275214140661477
4.77E9                   -0.6655857577494659      0.30863607570021206
4.8E9                    -0.6316650553156973      0.37139717142991113
4.83E9                   -0.5918644676636354      0.4304503862753212
4.86E9                   -0.5465885608927258      0.485249837586704
4.89E9                   -0.4962921901294379      0.5352940214642785
4.92E9                   -0.4414755067815579      0.5801305285832433
4.95E9                   -0.3826784418058202      0.619360135615465
4.98E9                   -0.32047477964636584     0.6526401706701098
5.01E9                   -0.25546597235577506     0.6796870920266458
5.04E9                   -0.18827485759245893     0.7002782739648595
5.07E9                   -0.11953943234406648     0.7142530513756196
5.1E9                    -0.04990679546076074     0.7215131230710226
5.13E9                   0.019972687777900334     0.7220224378842255
5.16E9                   0.0894510120082675       0.7158066762824816
5.19E9                   0.15788801135385067      0.7029523917029067
5.22E9                   0.22465676452212993      0.6836058052807301
5.25E9                   0.28914895893052306      0.6579711851752963
5.28E9                   0.35078017428761915      0.626308719707511
5.31E9                   0.4089949742104695       0.5889318272158878
5.34E9                   0.46327166191813307      0.5462039208773484
5.37E9                   0.5131265809773101       0.4985347264771347
5.4E9                    0.5581179119283638       0.4463762963525179
5.43E9                   0.597848996318726        0.3902188545962689
5.46E9                   0.6319712760115959       0.3305865553527708
5.49E9                   0.6601869486290287       0.2680331638412676
5.52E9                   0.6822514108951432       0.20313760697984198
5.55E9                   0.6979755058170163       0.13649930558905168
5.58E9                   0.7072275257774052       0.06873319935537703
5.61E9                   0.709934867730857        4.6440599162145946E-4
5.64E9                   0.7060852002232437       -0.06767748956741958
5.67E9                   0.6957269939804847       -0.13506445083866664
5.7E9                    0.6789692955516173       -0.20107617464511957
5.73E9                   0.6559806881214165       -0.26510625722657827
5.76E9                   0.626987472656381        -0.3265681426261444
5.79E9                   0.5922711864876838       -0.38490069704483165
5.82E9                   0.5521656192930474       -0.4395733378659835
5.85E9                   0.5070534679175586       -0.4900907364199368
5.88E9                   0.4573627038009031       -0.5359971670445792
5.91E9                   0.4035626483206789       -0.5768805706623515
5.94E9                   0.34615970130706125      -0.6123763509548046
5.97E9                   0.28569266337820526      -0.6421708574411966
6.0E9                    0.22272762526772763      -0.6660044616524253
