% Model:              three_layers reality at 0.1mm.mph
% Version:            COMSOL 5.6.0.280
% Date:               Mar 1 2022, 16:08
% Table:              表格 1 - 全局计算 1
% freq (Hz)              real(emw.S11) (1)        imag(emw.S11) (1)
300000000                0.5684629576132183       -0.7801841870897944
330000000                0.49324537697025017      -0.8289956935945608
360000000                0.41395342786291905      -0.8706270639769369
390000000                0.33125392229718287      -0.9047394068349682
420000000                0.24584547224441275      -0.9310539833197791
450000000                0.15845237622701147      -0.9493559892827741
480000000                0.06981821823048727      -0.9594974613035943
510000000                -0.019300745011329213    -0.9613993857400294
540000000                -0.10814234499035802     -0.9550530547513223
570000000                -0.19594535175921682     -0.940520693598117
600000000                -0.28195635360168314     -0.9179353732091937
630000000                -0.36543660471233574     -0.8875002182289571
660000000                -0.4456687768593004      -0.849486920996255
690000000                -0.5219635501515651      -0.8042335745791459
720000000                -0.593665975648165       -0.7521418432453234
750000000                -0.6601615440487837      -0.6936734942010196
780000000                -0.7208818947796011      -0.6293463214425848
810000000                -0.7753101022866962      -0.559729499633257
840000000                -0.822985479775044       -0.48543841304201846
870000000                -0.8635078451533093      -0.4071290114575994
900000000                -0.8965411993849273      -0.32549175179882467
930000000                -0.9218167742583516      -0.2412451897578908
960000000                -0.9391354139955017      -0.15512929100767855
990000000                -0.9483692633471441      -0.06789853566311066
1020000000               -0.9494627437137221      0.019685107495655246
1050000000               -0.9424328080197322      0.10685925859658192
1080000000               -0.9273684745019996      0.19286817729836445
1110000000               -0.904429648990941       0.2769697082144604
1140000000               -0.8738452544569824      0.35844204523082973
1170000000               -0.8359106954608491      0.4365902417342926
1200000000               -0.7909846932533121      0.5107523985774115
1230000000               -0.7394855349057058      0.580305466497489
1260000000               -0.6818867862724236      0.6446706064821255
1290000000               -0.6187125243035501      0.7033180582250091
1320000000               -0.5505321487464034      0.7557714744778331
1350000000               -0.47795483648937237     0.8016116871705989
1380000000               -0.4016237044104707      0.840479878923265
1410000000               -0.3222097473561692      0.8720801420683147
1440000000               -0.24040561824692094     0.896181414981705
1470000000               -0.15691931616459665     0.9126187933203813
1500000000               -0.07246784660567976     0.9212942209074815
1530000000               0.012229084723190377     0.9221765717155842
1560000000               0.09645528645835846      0.9153011404198165
1590000000               0.17950415012105125      0.9007685643255443
1620000000               0.2606845229231512       0.8787432041204473
1650000000               0.3393263393663659       0.8494510147323284
1680000000               0.4147859711144598       0.8131769407638437
1710000000               0.48645125949619017      0.7702618733562169
1740000000               0.5537461996820817       0.7210992071463773
1770000000               0.6161352503537153       0.6661310371132422
1800000000               0.6731272470881156       0.6058440358141612
1830000000               0.7242789020697593       0.5407650515784995
1860000000               0.7691978766479686       0.47145646808728164
1890000000               0.8075454170342301       0.39851136520659536
1920000000               0.8390385469981911       0.322548520027898
1950000000               0.8634518146183446       0.24420728613921272
1980000000               0.8806185933817652       0.1641423875811523
2010000000               0.8904319408518596       0.08301866235902317
2040000000               0.8928450209999739       0.00150578796585979
2070000000               0.8878710987976064       -0.07972698182172194
2100000000               0.8755831173161788       -0.1600160441695363
2130000000               0.8561128672680692       -0.23870861984719902
2.16E9                   0.8296497545933346       -0.3151678604048629
2.19E9                   0.7964391602438156       -0.3887778858873112
2.22E9                   0.756780364716153        -0.4589487497438766
2.25E9                   0.7110239790443416       -0.5251213102670312
2.28E9                   0.6595687970820013       -0.5867719371096424
2.31E9                   0.6028579953574127       -0.6434168912276391
2.34E9                   0.5413747063048732       -0.6946161188007055
2.37E9                   0.47563719372246854      -0.7399761893038657
2.4E9                    0.4061940686843588       -0.7791522947251065
2.43E9                   0.3336199870920396       -0.8118495894590465
2.46E9                   0.25851193890214896      -0.8378244319439091
2.49E9                   0.18148576599389196      -0.8568859936683865
2.52E9                   0.1031723290085303       -0.8688982578784199
2.55E9                   0.02421294892080539      -0.8737820134009433
2.58E9                   -0.054745856871748266    -0.8715163599663125
2.61E9                   -0.13305806153463084     -0.8621394334613017
2.64E9                   -0.21008392368950118     -0.8457483014040549
2.67E9                   -0.28519567373749677     -0.8224981194059853
2.7E9                    -0.3577829851426855      -0.7926006698567877
2.73E9                   -0.42725819136653476     -0.756322378778683
2.76E9                   -0.4930612346880179      -0.7139818717084361
2.79E9                   -0.5546643345547019      -0.6659471048195931
2.82E9                   -0.6115763563545256      -0.6126320957342681
2.85E9                   -0.6633468544488828      -0.5544932759158361
2.88E9                   -0.7095697586176355      -0.49202548919132605
2.91E9                   -0.7498866715193307      -0.42575766567874584
2.94E9                   -0.7839897455728304      -0.35624820570548416
2.97E9                   -0.8116241102368129      -0.28408011343840045
3.0E9                    -0.8325898246595633      -0.20985592427912914
3.03E9                   -0.8467433354658601      -0.13419247381894162
3.06E9                   -0.8539984249967287      -0.05771555885792748
3.09E9                   -0.854326641277298       0.01894545714274916
3.12E9                   -0.8477572072077166      0.09516304094364507
3.15E9                   -0.834376412771682       0.17031683556533633
3.18E9                   -0.8143265002009804      0.24379890352018596
3.21E9                   -0.7878040578254498      0.31501881713507496
3.24E9                   -0.7550579435321532      0.3834085488211219
3.27E9                   -0.7163867632446603      0.4484271174034724
3.3E9                    -0.6721359335115307      0.5095649503249223
3.33E9                   -0.6226943601919549      0.5663479252651207
3.36E9                   -0.5684907676618927      0.6183410580459388
3.39E9                   -0.5099897150103255      0.6651518068808263
3.42E9                   -0.44768733786901604     0.7064329657047581
3.45E9                   -0.38210685707859604     0.7418851218928852
3.48E9                   -0.31379389858277007     0.7712586564735937
3.51E9                   -0.24331167281490204     0.7943552685320951
3.54E9                   -0.17123606613350015     0.8110290105324801
3.57E9                   -0.09815070071355017     0.8211868282939685
3.6E9                    -0.024642021820957538    0.8247886083641593
3.63E9                   0.048705528763168006     0.8218467459661959
3.66E9                   0.12131419763921035      0.812425257248878
3.69E9                   0.19261741385968423      0.7966384688122892
3.72E9                   0.2620640511701579       0.7746493244132122
3.75E9                   0.3291224265227968       0.7466673533886672
3.78E9                   0.3932840122248902       0.7129463483236327
3.81E9                   0.45406684935323494      0.6737818011046944
3.84E9                   0.511018661721471        0.629508145925604
3.87E9                   0.5637196827273808       0.5804958527659377
3.9E9                    0.6117852187131881       0.5271484036356808
3.93E9                   0.6548679779856134       0.4698991669368862
3.96E9                   0.6926601906473657       0.40920816644383384
3.99E9                   0.7248955302986332       0.3455587269555146
4.02E9                   0.751350828520447        0.27945397388076465
4.05E9                   0.7718475532124117       0.21141317116499067
4.08E9                   0.7862530090192174       0.1419678985577513
4.11E9                   0.7944812157623602       0.07165808972296842
4.14E9                   0.79649342883142         0.0010279709368722716
4.17E9                   0.7922982804767703       -0.06937804843052656
4.2E9                    0.7819515382268275       -0.1390194795254008
4.23E9                   0.7655554917569063       -0.2073638025012771
4.26E9                   0.7432579894711246       -0.27389042048514645
4.29E9                   0.7152511495968007       -0.33809449116298
4.32E9                   0.6817697685089436       -0.3994906177192669
4.35E9                   0.6430894434329073       -0.4576163865649123
4.38E9                   0.5995244205505807       -0.5120357401012966
4.41E9                   0.5514251753006797       -0.5623421698561234
4.44E9                   0.499175730710053        -0.6081617105571306
4.47E9                   0.44319072200651494      -0.6491557110760531
4.5E9                    0.38391222054306273      -0.6850233553091667
4.53E9                   0.3218063362177004       -0.7155039054028314
4.56E9                   0.2573596236047493       -0.7403786416633737
4.59E9                   0.19107532243865288      -0.7594724774474746
4.62E9                   0.12346946679019624      -0.7726552331117272
4.65E9                   0.05506689866937969      -0.7798425598885355
4.68E9                   -0.013602779611091265    -0.7809965111109971
4.71E9                   -0.08200928408381412     -0.7761257629570314
4.74E9                   -0.14962573369222004     -0.7652854882527189
4.77E9                   -0.21593271979086703     -0.7485768845184811
4.8E9                    -0.2804223399584091      -0.7261463526647969
4.83E9                   -0.3426021711885363      -0.698184318407676
4.86E9                   -0.4019991493967222      -0.6649236877255764
4.89E9                   -0.4581633131244125      -0.6266379323466895
4.92E9                   -0.5106713626682226      -0.5836388111510887
4.95E9                   -0.5591299840452345      -0.5362737464332061
4.98E9                   -0.6031788911655873      -0.4849228874274495
5.01E9                   -0.6424935489213445      -0.4299959045620895
5.04E9                   -0.6767875529317957      -0.37192856457453366
5.07E9                   -0.7058146563929573      -0.3111791372865102
5.1E9                    -0.7293704477760383      -0.24822467898967707
5.13E9                   -0.7472936915079003      -0.18355722617546052
5.16E9                   -0.759467344416862       -0.11767991959284621
5.19E9                   -0.7658192526178775      -0.05110306816125037
5.22E9                   -0.7663225199492272      0.01565984000033044
5.25E9                   -0.7609955267103454      0.08209616303966871
5.28E9                   -0.7499015741255963      0.14769813376593569
5.31E9                   -0.7331481397107423      0.21196683978232178
5.34E9                   -0.7108857488861693      0.2744160956270226
5.37E9                   -0.6833064903046434      0.3345761523314739
5.4E9                    -0.650642217077853       0.3919972065429655
5.43E9                   -0.6131624783254138      0.446252691943269
5.46E9                   -0.5711722163920391      0.4969423518762057
5.49E9                   -0.5250092504638836      0.5436950987264083
5.52E9                   -0.47504155362858        0.5861716625433014
5.55E9                   -0.4216643222295397      0.6240670217344021
5.58E9                   -0.36529683539999314     0.6571125964055421
5.61E9                   -0.3063791085330416      0.6850781737425289
5.64E9                   -0.24536835599173054     0.7077735272178306
5.67E9                   -0.18273529385189652     0.7250496896344123
5.7E9                    -0.1189603303497151      0.7367998461502995
5.73E9                   -0.054529705561420096    0.7429598285946293
5.76E9                   0.010068353166731115     0.7435082147111642
5.79E9                   0.07434740134106069      0.7384660590314902
5.82E9                   0.13782643410079168      0.7278962970225162
5.85E9                   0.20003341435921165      0.7119028645316767
5.88E9                   0.2605086740171833       0.6906295614604967
5.91E9                   0.31880819368713986      0.6642586702422654
5.94E9                   0.37450675796613275      0.6330093258400651
5.97E9                   0.42720096945735586      0.5971356301478762
6.0E9                    0.4765120929781567       0.5569245090808076
