% Model:              three_layers reality at 0.1mm.mph
% Version:            COMSOL 5.6.0.280
% Date:               Mar 1 2022, 16:16
% Table:              表格 1 - 全局计算 1
% freq (Hz)              real(emw.S11) (1)        imag(emw.S11) (1)
300000000                0.5649790658355647       -0.77115935458965
330000000                0.49114837829264996      -0.8188901036239941
360000000                0.4134348924495843       -0.8596641497710569
390000000                0.33246632915665214      -0.8931651491445213
420000000                0.24890190248895774      -0.9191313625151954
450000000                0.16342633222352188      -0.9373597879282182
480000000                0.07674366590903309      -0.9477092818989847
510000000                -0.0104290366485305      -0.9501028215395458
540000000                -0.09736811448078148     -0.944528995416701
570000000                -0.18334977008324904     -0.9310427740563482
600000000                -0.2676565430331281      -0.9097655907321922
630000000                -0.3495837439791082      -0.8808847524995631
660000000                -0.4284457960851157      -0.8446521977658032
690000000                -0.5035824289330811      -0.8013826160873638
720000000                -0.5743646672451055      -0.7514509487410095
750000000                -0.640200556236505       -0.6952892925408407
780000000                -0.7005405653445149      -0.6333832347708576
810000000                -0.7548826137030425      -0.5662676528426012
840000000                -0.802776663015027       -0.4945220184493252
870000000                -0.8438288269979743      -0.41876525221485883
900000000                -0.8777049512871141      -0.3396501805051199
930000000                -0.9041336231253565      -0.2578576516100487
960000000                -0.9229085765972918      -0.17409037298771318
990000000                -0.9338904661531647      -0.08906653561825513
1020000000               -0.9370079889895243      -0.0035132940663289178
1050000000               -0.9322583448939428      0.08183982686716826
1080000000               -0.9197070305078935      0.16626752751674384
1110000000               -0.8994869734101583      0.24905525891883917
1140000000               -0.8717970197469065      0.3295056090014592
1170000000               -0.8368997971999493      0.4069444814666879
1200000000               -0.7951189826143598      0.4807270035795824
1230000000               -0.7468360107714294      0.5502431029093654
1260000000               -0.692486266823471       0.614922698991498
1290000000               -0.6325548106916488      0.6742404611722089
1320000000               -0.5675716859053119      0.7277200910221434
1350000000               -0.4981068692763815      0.774938094195709
1380000000               -0.4247649200528454      0.8155270141082543
1410000000               -0.3481793890297207      0.849178106862582
1440000000               -0.26900704852884944     0.8756434442042675
1470000000               -0.18792200393411493     0.8947374382361309
1500000000               -0.10560974622616648     0.9063377883753813
1530000000               -0.02276120313640604     0.9103858572648232
1560000000               0.05993315631629912      0.9068864881648104
1590000000               0.14178911180100648      0.8959072814849023
1620000000               0.2221343283572086       0.8775773527345043
1650000000               0.30031379528427177      0.8520855980311222
1680000000               0.3756950271962932       0.8196784966510636
1710000000               0.44767299153917595      0.7806574826423314
1740000000               0.5156747309715414       0.735375919640688
1770000000               0.5791636534196787       0.6842357144298058
1800000000               0.6376434666809317       0.6276836057896327
1830000000               0.6906617384606041       0.5662071656701728
1860000000               0.7378130665043628       0.5003305498209645
1890000000               0.778741847051247        0.4306100348337708
1920000000               0.8131446331866066       0.3576293780739862
1950000000               0.8407720779644671       0.2819950361111516
1980000000               0.8614304601865428       0.20433127629343956
2010000000               0.8749827937215117       0.12527521466913125
2040000000               0.8813495242000272       0.04547181131129732
2070000000               0.8805088194466791       -0.0344311486395483
2100000000               0.8724964619868143       -0.11378806419575493
2130000000               0.8574053520480533       -0.19196049994732778
2.16E9                   0.8353846259055158       -0.2683221290875228
2.19E9                   0.8066383839467118       -0.3422636350978493
2.22E9                   0.7714240024097248       -0.41319757089139214
2.25E9                   0.7300499720819442       -0.4805631604023042
2.28E9                   0.6828731782949387       -0.54383098078358
2.31E9                   0.6302955411905693       -0.6025073770659432
2.34E9                   0.5727600229002626       -0.6561383615479942
2.37E9                   0.5107462006115292       -0.7043127260669175
2.4E9                    0.44476581597599285      -0.7466642586763014
2.43E9                   0.37535873941880027      -0.7828733002189734
2.46E9                   0.30308949253524364      -0.8126681669854741
2.49E9                   0.22854401534327273      -0.8358269078631596
2.52E9                   0.15232612837776716      -0.852179457936609
2.55E9                   0.07505330529099936      -0.8616098397374401
2.58E9                   -0.0026482596724706656   -0.8640579507279291
2.61E9                   -0.08014904180841037     -0.859520639754302
2.64E9                   -0.15682173791052245     -0.8480520028518446
2.67E9                   -0.23204676830746723     -0.829762969302554
2.7E9                    -0.3052176197491582      -0.8048202854354329
2.73E9                   -0.3757459855786778      -0.7734449841546165
2.76E9                   -0.44306668626916396     -0.7359103964488392
2.79E9                   -0.5066423563768665      -0.6925397376136035
2.82E9                   -0.5659678781641019      -0.6437032891792559
2.85E9                   -0.6205745354492358      -0.5898151945095275
2.88E9                   -0.6700338563212018      -0.531329888262238
2.91E9                   -0.713961111450967       -0.4687381842358649
2.94E9                   -0.7520184347817079      -0.40256305138798737
2.97E9                   -0.7839175354062963      -0.3333551128481557
3.0E9                    -0.8094219726186304      -0.26168790741789527
3.03E9                   -0.828348970372463       -0.18815295699341816
3.06E9                   -0.8405707522604495      -0.11335468662449454
3.09E9                   -0.8460153836348641      -0.037905246213367355
3.12E9                   -0.8446671132299954      0.03758071547392472
3.15E9                   -0.8365662126950408      0.112491273373392
3.18E9                   -0.8218083183656213      0.18622239441327534
3.21E9                   -0.8005432853533778      0.25818300198279626
3.24E9                   -0.7729735692878976      0.3277998891065027
3.27E9                   -0.7393521556971164      0.3945224355571592
3.3E9                    -0.6999800609511031      0.4578270871510718
3.33E9                   -0.6552034319454773      0.5172215586396445
3.36E9                   -0.6054102744072898      0.5722487246122
3.39E9                   -0.5510268421965464      0.6224901654573
3.42E9                   -0.4925137224108543      0.6675693378851483
3.45E9                   -0.4303616540523556      0.7071543416591135
3.48E9                   -0.365087121445878       0.7409602566902369
3.51E9                   -0.29722776798808204     0.7687510277254065
3.54E9                   -0.2273376803859141      0.7903408785711665
3.57E9                   -0.15598259821822982     0.8055952442415247
3.6E9                    -0.08373510681869832     0.8144312181562384
3.63E9                   -0.011169872435423223    0.816817521727812
3.66E9                   0.06114102362688208      0.8127740143697433
3.69E9                   0.13263260052975348      0.8023707716035249
3.72E9                   0.20275129897099903      0.785726766520449
3.75E9                   0.27095907215908305      0.7630081953095177
3.78E9                   0.336737219913333        0.7344264913937286
3.81E9                   0.3995899487616848       0.700236075392726
3.84E9                   0.4590476527291273       0.6607318886607406
3.87E9                   0.5146699225600866       0.6162467544945347
3.9E9                    0.5660483033214682       0.5671486011919618
3.93E9                   0.6128088273492818       0.5138375650732396
3.96E9                   0.6546143472335171       0.4567429728965909
3.99E9                   0.6911666812356558       0.3963201876769569
4.02E9                   0.7222085642232404       0.33304729559154134
4.05E9                   0.7475253773942758       0.26742161681310045
4.08E9                   0.7669466160781635       0.19995603832573614
4.11E9                   0.7803470510533868       0.1311751864870263
4.14E9                   0.7876475451511489       0.06161147569679899
4.17E9                   0.7888155007469142       -0.008198918155815747
4.2E9                    0.7838649304437841       -0.07772010648759162
4.23E9                   0.7728561585307706       -0.14642050974371054
4.26E9                   0.7558951713650537       -0.21377681162755297
4.29E9                   0.7331326392633326       -0.27927781652917133
4.32E9                   0.7047626312065418       -0.3424281905757738
4.35E9                   0.6710210386401742       -0.4027520727840239
4.38E9                   0.6321837186443979       -0.4597965442526946
4.41E9                   0.5885643622967812       -0.5131349408450879
4.44E9                   0.5405120926379728       -0.5623699902917331
4.47E9                   0.4884087985595413       -0.6071367499013482
4.5E9                    0.4326662153378985       -0.6471053179025429
4.53E9                   0.3737227683576627       -0.6819832903447973
4.56E9                   0.312040202656698        -0.7115179368079233
4.59E9                   0.24810002639990572      -0.735498071671905
4.62E9                   0.18239980043751114      -0.7537556030069826
4.65E9                   0.11544930794717417      -0.7661667476497437
4.68E9                   0.047766637186013663     -0.7726529075412297
4.71E9                   -0.020125793285118477    -0.7731812072982914
4.74E9                   -0.0877052425869369      -0.7677646946556012
4.77E9                   -0.1544526686656761      -0.7564622033127646
4.8E9                    -0.2198567432663186      -0.7393778729101572
4.83E9                   -0.2834178375582771      -0.7166603161069377
4.86E9                   -0.34465194717841874     -0.6885014211989354
4.89E9                   -0.4030945161525574      -0.6551347824534935
4.92E9                   -0.45830411163712        -0.6168337594401891
4.95E9                   -0.509865898475451       -0.5739091792787863
4.98E9                   -0.5573948652687103      -0.5267067092412001
5.01E9                   -0.6005387617309355      -0.4756039388269985
5.04E9                   -0.6389807193639268      -0.42100721804494895
5.07E9                   -0.6724415417751479      -0.3633483005349701
5.1E9                    -0.7006816644397138      -0.30308083559157867
5.13E9                   -0.7235027928944633      -0.2406767427084268
5.16E9                   -0.7407492299779735      -0.17662248895315624
5.19E9                   -0.7523088955929733      -0.11141527834394085
5.22E9                   -0.7581140290990961      -0.045559159258166
5.25E9                   -0.7581415514146952      0.02043893616697704
5.28E9                   -0.7524130590884237      0.08607318973351918
5.31E9                   -0.7409944307260702      0.15084288277377567
5.34E9                   -0.7239950454102765      0.2142563100868815
5.37E9                   -0.7015666351254141      0.27583456576183196
5.4E9                    -0.6739018092518193      0.33511515971031375
5.43E9                   -0.6412322932207999      0.39165544382739553
5.46E9                   -0.6038269158630959      0.44503584348423175
5.49E9                   -0.5619893660916618      0.4948628978219463
5.52E9                   -0.5160557257681914      0.5407721104332165
5.55E9                   -0.466391776693121       0.5824306030288742
5.58E9                   -0.4133900776944193      0.6195395526029421
5.61E9                   -0.35746681275949865     0.6518363808912264
5.64E9                   -0.2990584220677051      0.679096656353419
5.67E9                   -0.23861804315760687     0.7011356657863944
5.7E9                    -0.17661180691738015     0.7178096173499381
5.73E9                   -0.11351504823424943     0.7290164507761809
5.76E9                   -0.04980849820622098     0.7346962523706946
5.79E9                   0.014025481067975144     0.7348312961967101
5.82E9                   0.0775065764353796       0.7294457494664377
5.85E9                   0.14016009916346164      0.7186050826466679
5.88E9                   0.20152045484522035      0.7024152132842119
5.91E9                   0.26113451186695386      0.6810213946400367
5.94E9                   0.3185648654124272       0.6546068457962958
5.97E9                   0.37339298057735193      0.6233911149504986
6.0E9                    0.42522218595609407      0.5876281721150909
