% Model:              three_layers reality at 0.1mm.mph
% Version:            COMSOL 5.6.0.280
% Date:               Mar 2 2022, 16:54
% Table:              表格 1 - 全局计算 1
% freq (Hz)              real(emw.S11) (1)        imag(emw.S11) (1)
300000000                0.5367932075646177       -0.8367027342969643
330000000                0.4506036908644504       -0.8858392594815767
360000000                0.3599962302933543       -0.9261001541789087
390000000                0.26588653503803883      -0.957096397143705
420000000                0.1692236273627751       -0.9785338705531473
450000000                0.07097992564804496      -0.9902160791696097
480000000                -0.027858869563094402    -0.9920458264903383
510000000                -0.12630397927402762     -0.9840258362198745
540000000                -0.22337372959821558     -0.966258318472145
570000000                -0.31810360612217203     -0.9389434918597775
600000000                -0.409556071986874       -0.902377083935919
630000000                -0.49683004490245575     -0.8569468438625116
660000000                -0.5790699334330747      -0.8031281119711644
690000000                -0.6554741385919307      -0.7414785008989049
720000000                -0.7253029327644461      -0.672631752954216
750000000                -0.7878856365864135      -0.597290846634332
780000000                -0.8426270225053923      -0.5162204332335275
810000000                -0.8890128833431329      -0.43023869113970514
840000000                -0.9266147142604109      -0.340208690937016
870000000                -0.95509346699702        -0.24702936895338667
900000000                -0.974202346221734       -0.15162621009011346
930000000                -0.9837886290113369      -0.05494174239665409
960000000                -0.9837944994849815      0.042074052819683884
990000000                -0.9742569019267844      0.13847331293421444
1020000000               -0.9553064264186715      0.2333197467157695
1050000000               -0.9271652515918896      0.32569786978452436
1080000000               -0.8901441790200757      0.4147219289248611
1110000000               -0.8446388032119243      0.4995444261201848
1140000000               -0.7911248697247298      0.5793641595635995
1170000000               -0.7301528817932224      0.6534337054663185
1200000000               -0.6623420228013025      0.7210662721292799
1230000000               -0.5883734678356743      0.7816418659460748
1260000000               -0.5089831625919347      0.8346127175286657
1290000000               -0.4249541518910527      0.8795079251227647
1320000000               -0.33710854284542197     0.9159372817671001
1350000000               -0.24629918975086565     0.9435942618117203
1380000000               -0.15340118853053825     0.9622581517806239
1410000000               -0.05930326852823242     0.9717953196665111
1440000000               0.035100831699524805     0.9721596257098475
1470000000               0.12892091979830198      0.9633919862934834
1500000000               0.22127875428983934      0.9456191108155845
1530000000               0.3113162200358039       0.9190514391290879
1560000000               0.39820320029334333      0.8839803143434436
1590000000               0.48114507593829076      0.8407744324136606
1620000000               0.5593897878849454       0.7898756159243879
1650000000               0.6322344044808332       0.7317939648689381
1680000000               0.6990311420056404       0.6671024418598716
1710000000               0.759192792879336        0.5964309532842804
1740000000               0.812197523154849        0.5204599911942919
1770000000               0.8575930079556944       0.43991390339832864
1800000000               0.8949998809144489       0.35555386115976834
1830000000               0.9241144812959323       0.2681705951491944
1860000000               0.9447108904322328       0.1785769706869873
1890000000               0.956642257347101        0.0876004729108006
1920000000               0.9598414222167687       -0.003924329191444062
1950000000               0.9543208555675872       -0.09516327414019055
1980000000               0.940171940928941        -0.18528999447261582
2010000000               0.9175636387232597       -0.27349314722386675
2040000000               0.8867405785055458       -0.3589834515825177
2070000000               0.8480206328033408       -0.44100051897693504
2100000000               0.8017920233861187       -0.518819493388776
2130000000               0.7485099894841785       -0.5917575634347119
2.16E9                   0.6886929900903515       -0.6591804569738884
2.19E9                   0.6229182958616057       -0.7205090611894676
2.22E9                   0.551816634159044        -0.7752262705780048
2.25E9                   0.4760653117634466       -0.8228839528420157
2.28E9                   0.3963790992975829       -0.8631094244877846
2.31E9                   0.3134984433343764       -0.8956100545970115
2.34E9                   0.22817566424098318      -0.9201739647287707
2.37E9                   0.1411616405832774       -0.9366651800358782
2.4E9                    0.053196887923562745     -0.9450138227366338
2.43E9                   -0.03499005814206751     -0.9452052616224835
2.46E9                   -0.12267795680270766     -0.9372737134405983
2.49E9                   -0.2091469274834651      -0.9213033724096003
2.52E9                   -0.2936767849899341      -0.8974353389294333
2.55E9                   -0.3755518141174703      -0.8658755875083939
2.58E9                   -0.4540703372114748      -0.8268998954669993
2.61E9                   -0.5285559121268338      -0.7808543244605097
2.64E9                   -0.5983676990070481      -0.728152001869517
2.67E9                   -0.662908930644271       -0.6692676785752057
2.7E9                    -0.7216334371842088      -0.60473129956929
2.73E9                   -0.7740505999433379      -0.5351213083792286
2.76E9                   -0.8197291502949255      -0.4610579925092342
2.79E9                   -0.8583001227563722      -0.383196945666997
2.82E9                   -0.8894591487762977      -0.302222628107656
2.85E9                   -0.9129681862235158      -0.21884198623254406
2.88E9                   -0.9286567236939155      -0.1337781034944203
2.91E9                   -0.936422469624898       -0.047763873843262895
2.94E9                   -0.9362315238506949      0.03846429275174522
2.97E9                   -0.9281180265392948      0.12417270915806089
3.0E9                    -0.912183281803927       0.20863656069792058
3.03E9                   -0.8885943582436138      0.2911459256822829
3.06E9                   -0.8575821748100128      0.37101162352505324
3.09E9                   -0.8194390869535081      0.4475708462007182
3.12E9                   -0.7745159944141493      0.5201925299631978
3.15E9                   -0.7232189977173924      0.5882824273780018
3.18E9                   -0.6660056348511733      0.6512878443986225
3.21E9                   -0.6033807319787957      0.7087020130723901
3.24E9                   -0.5358919020530454      0.7600680763214377
3.27E9                   -0.4641247225653725      0.8049826661657623
3.3E9                    -0.38869761905313727     0.8430990591454649
3.33E9                   -0.3102564754748614      0.8741298915631456
3.36E9                   -0.22946898801083854     0.8978494117552464
3.39E9                   -0.147018777482643       0.914095237077246
3.42E9                   -0.06359927970718325     0.9227695708106639
3.45E9                   0.020092555145666324     0.9238398210797247
3.48E9                   0.10336270252526952      0.9173385537516406
3.51E9                   0.1855265619351279       0.9033627089827218
3.54E9                   0.2659153985424498       0.8820720217310098
3.57E9                   0.3438825788703637       0.8536866140021907
3.6E9                    0.41880942752097977      0.8184837711171403
3.63E9                   0.4901105261407608       0.7767939709526323
3.66E9                   0.5572382937355425       0.7289962941873033
3.69E9                   0.6196867275972462       0.6755133940816899
3.72E9                   0.6769942399726215       0.6168062386061024
3.75E9                   0.7287455897044371       0.5533688540978023
3.78E9                   0.7745729773430278       0.4857232992313419
3.81E9                   0.8141564474954142       0.41441507849898634
3.84E9                   0.847223821199955        0.3400091552413643
3.87E9                   0.8735504484362218       0.2630866335200394
3.9E9                    0.8929590972992731       0.18424204542569558
3.93E9                   0.905320251266188        0.10408103088773196
3.96E9                   0.9105529599323141       0.023218077214585853
3.99E9                   0.9086262069462663       -0.057726055542388015
4.02E9                   0.8995605764349808       -0.1381275364746489
4.05E9                   0.883429875111554        -0.21736345949587582
4.08E9                   0.8603623373028285       -0.2948166160748768
4.11E9                   0.8305411034450799       -0.36988086501879996
4.14E9                   0.7942037876833972       -0.44196681814835204
4.17E9                   0.7516410932472063       -0.510507535727143
4.2E9                    0.7031945564832764       -0.5749639666938599
4.23E9                   0.6492535779187947       -0.6348299511779144
4.26E9                   0.5902519241637386       -0.689636697600522
4.29E9                   0.5266638644617399       -0.7389567284955908
4.32E9                   0.45900005668491667      -0.7824073408902912
4.35E9                   0.38780323999521116      -0.8196536428687353
4.38E9                   0.31364374432638337      -0.8504112127705398
4.41E9                   0.23711480176326669      -0.8744483946234931
4.44E9                   0.15882764436125127      -0.8915882079345787
4.47E9                   0.07940639106308521      -0.901709823987348
4.5E9                    -5.172457638527916E-4    -0.9047495499483275
4.53E9                   -0.08030937498425815     -0.9007012667804641
4.56E9                   -0.15933937974915954     -0.8896162843702422
4.59E9                   -0.23698531180205845     -0.8716026039622874
4.62E9                   -0.31263912774074254     -0.8468236100491364
4.65E9                   -0.3857116807737364      -0.8154962459718806
4.68E9                   -0.4556374098830441      -0.7778887517207541
4.71E9                   -0.521878707550011       -0.734318049591408
4.74E9                   -0.5839299862955425      -0.685146847018325
4.77E9                   -0.6413214879113972      -0.63078048783341
4.8E9                    -0.693622874538379       -0.5716635361344942
4.83E9                   -0.740446605919413       -0.5082760402783602
4.86E9                   -0.781451053301217       -0.44112941590544585
4.89E9                   -0.8163432477443776      -0.3707619133062954
4.92E9                   -0.8448811290585321      -0.29773368909236664
4.95E9                   -0.8668751628205187      -0.22262156948063325
4.98E9                   -0.8821892287922118      -0.14601365410301156
5.01E9                   -0.8907407479825045      -0.06850394951417117
5.04E9                   -0.892500095848785       0.009312771038926576
5.07E9                   -0.8874894295036141      0.08684571737066467
5.1E9                    -0.8757811166197436      0.1635123495430204
5.13E9                   -0.857495970591367       0.23874216995519248
5.16E9                   -0.8328014548377687      0.3119801479033907
5.19E9                   -0.8019099226412065      0.38268994645080734
5.22E9                   -0.7650768389514158      0.45035711320475547
5.25E9                   -0.7225988392998239      0.5144923120361853
5.28E9                   -0.6748114662526513      0.5746345460269152
5.31E9                   -0.6220864985028722      0.6303542155389057
5.34E9                   -0.564828916092492       0.6812558261411035
5.37E9                   -0.5034736610070514      0.7269802255770172
5.4E9                    -0.43848239702312547     0.7672063733048521
5.43E9                   -0.3703404278391411      0.8016527684450129
5.46E9                   -0.2995538243070959      0.8300787283193483
5.49E9                   -0.22664668964140822     0.8522856990570846
5.52E9                   -0.15215840128813485     0.868118705205136
5.55E9                   -0.0766406334934004      0.8774679392416478
5.58E9                   -6.539867460100268E-4    0.8802703873320463
5.61E9                   0.07523588280377212      0.8765113078419307
5.64E9                   0.15046264517765273      0.866225337512622
5.67E9                   0.22446409275290355      0.8494970053222123
5.7E9                    0.29668715356215664      0.8264604918839109
5.73E9                   0.36659286035342564      0.7972985803167737
5.76E9                   0.4336610169725191       0.7622408802972442
5.79E9                   0.49739438751886933      0.7215615238286236
5.82E9                   0.5573223745869881       0.6755765760345009
5.85E9                   0.6130042900368864       0.6246413520933214
5.88E9                   0.6640323911015277       0.569147708784005
5.91E9                   0.7100348302101414       0.5095212500229196
5.94E9                   0.7506785745109522       0.44621830968362364
5.97E9                   0.7856722440149508       0.37972257321309705
6.0E9                    0.8147687401488111       0.3105412535300353
