% Model:              three_layers reality at 0.1mm.mph
% Version:            COMSOL 5.6.0.280
% Date:               Mar 9 2022, 14:52
% Table:              表格 1 - 全局计算 1
% freq (Hz)              real(emw.S11) (1)        imag(emw.S11) (1)
300000000                0.547836742719764        -0.7324691155770275
330000000                0.4789151330672272       -0.7777582114907426
360000000                0.406385350634794        -0.8167003390485097
390000000                0.3308085784566391       -0.8490010571456449
420000000                0.25277455046388086      -0.8744162514915881
450000000                0.17289598966065292      -0.8927547503461375
480000000                0.09180313235421328      -0.9038804228842754
510000000                0.010138263824308248     -0.9077137696845923
540000000                -0.07144976189383226     -0.9042330070139916
570000000                -0.1523110184312877      -0.8934746427128083
600000000                -0.2318000014192844      -0.8755335404360537
630000000                -0.3092810932972313      -0.8505624699217723
660000000                -0.3841339615790267      -0.8187711435697675
690000000                -0.45575885079105416     -0.7804247425350617
720000000                -0.5235817233245731      -0.7358419400582058
750000000                -0.5870592034380432      -0.685392434406319
780000000                -0.6456832783440878      -0.6294940083233184
810000000                -0.698985709384184       -0.5686091381929258
840000000                -0.7465421095355046      -0.5032411799089239
870000000                -0.787975643707248       -0.4339301653516088
900000000                -0.8229603130252858      -0.3612482469185936
930000000                -0.851223787081806       -0.2857948331281048
960000000                -0.8725497532241203      -0.20819146209877354
990000000                -0.8867797568488842      -0.1290764635525445
1020000000               -0.8938145125763317      -0.04909946249919969
1050000000               -0.8936146720218945      0.031084219236892197
1080000000               -0.8862010405198464      0.11081920691040476
1110000000               -0.8716542415275772      0.18945570458861855
1140000000               -0.8501138340912697      0.26635505698120476
1170000000               -0.8217768952888925      0.34089518543169295
1200000000               -0.7868960856692537      0.4124758439354608
1230000000               -0.7457772218576416      0.48052364339257575
1260000000               -0.6987763857262201      0.5444967963430515
1290000000               -0.6462966046497587      0.6038895381125398
1320000000               -0.5887841415287535      0.6582361851508903
1350000000               -0.5267244367978853      0.7071147964101586
1380000000               -0.46063774793126777     0.750150408631074
1410000000               -0.39107453333061937     0.7870178226785488
1440000000               -0.3186106296757844      0.8174439229559385
1470000000               -0.24384227190170338     0.8412095181228146
1500000000               -0.1673810050099691      0.8581506966575709
1530000000               -0.08984853649040297     0.8681596960466993
1560000000               -0.011871576234440085    0.8711852895464184
1590000000               0.06592329022331499      0.8672326989215844
1620000000               0.14291465241422951      0.856363045932377
1650000000               0.21849120887407417      0.8386923590008776
1680000000               0.29205654694799427      0.814390154786085
1710000000               0.36303373375359715      0.7836776172756019
1740000000               0.43086968751046784      0.74682539914803
1770000000               0.49503930105436567      0.7041510721678789
1800000000               0.5550492929124072       0.6560162548104825
1830000000               0.6104417648290025       0.6028234460622032
1860000000               0.6607974471136306       0.5450125953596381
1890000000               0.70573861655012         0.4830574387881928
1920000000               0.7449316742828274       0.4174616316946902
1950000000               0.7780893735313015       0.348754707956633
1980000000               0.8049726895426481       0.2774878955779415
2010000000               0.8253923261380174       0.2042298183218212
2040000000               0.8392098554994555       0.1295621119836818
2070000000               0.8463384894008361       0.05407498405678403
2100000000               0.8467434820185649       -0.02163725549347842
2130000000               0.8404421659763778       -0.09698066497212512
2.16E9                   0.827503624860071        -0.1713661165946037
2.19E9                   0.8080480069487295       -0.2442136907723247
2.22E9                   0.7822454863786362       -0.3149569938759602
2.25E9                   0.7503148792958001       -0.38304737508409314
2.28E9                   0.7125219238105949       -0.4479580189788279
2.31E9                   0.6691772332506496       -0.5091878922906466
2.34E9                   0.6206339322394595       -0.566265524717046
2.37E9                   0.5672849836732393       -0.618752605466212
2.4E9                    0.5095602113230154       -0.6662473776700258
2.43E9                   0.447923017312861        -0.7083878103428102
2.46E9                   0.38286678716202815      -0.7448545192720356
2.49E9                   0.31491097268095775      -0.775373390378764
2.52E9                   0.24459685285417054      -0.7997178326214893
2.55E9                   0.17248300889590987      -0.8177105605908811
2.58E9                   0.09914061420761336      -0.8292248052777907
2.61E9                   0.025148713935453773     -0.8341849053005053
2.64E9                   -0.048910305543603275    -0.8325663491120259
2.67E9                   -0.1224549361558287      -0.8243954669154635
2.7E9                    -0.19490850912864455     -0.8097490067261331
2.73E9                   -0.2657031055289492      -0.7887537130505703
2.76E9                   -0.33428363921146476     -0.7615858273565107
2.79E9                   -0.4001121996215249      -0.7284702928428337
2.82E9                   -0.462672568341135       -0.6896794540620464
2.85E9                   -0.5214747261615561      -0.6455311519769154
2.88E9                   -0.5760591711865021      -0.5963862312725551
2.91E9                   -0.6260009262030996      -0.5426455414966007
2.94E9                   -0.670913173445506       -0.484746525672187
2.97E9                   -0.7104504921614366      -0.423159475275288
3.0E9                    -0.744311690054083       -0.3583835106980569
3.03E9                   -0.7722422220965994      -0.2909423327731404
3.06E9                   -0.7940361886300439      -0.22137978405177916
3.09E9                   -0.8095379027409257      -0.1502552572950147
3.12E9                   -0.8186430169670722      -0.07813898984094125
3.15E9                   -0.8212992012842429      -0.005607284557880834
3.18E9                   -0.8175063676361584      0.06676229991434589
3.21E9                   -0.807316440563929       0.1383957458262008
3.24E9                   -0.7908326781874107      0.20872731571815142
3.27E9                   -0.7682085526185669      0.2772041907873206
3.3E9                    -0.7396462035915473      0.3432909658811465
3.33E9                   -0.7053944835256756      0.4064739605025809
3.36E9                   -0.6657466162632565      0.4662653078507978
3.39E9                   -0.6210374955247577      0.5222067864056197
3.42E9                   -0.5716406523466592      0.5738733620724749
3.45E9                   -0.5179649237463774      0.6208764121869613
3.48E9                   -0.4604508573465902      0.6628666064973281
3.51E9                   -0.3995668888754261      0.6995364241519462
3.54E9                   -0.33580533087608766     0.7306222901168282
3.57E9                   -0.26967821229136935     0.755906318602933
3.6E9                    -0.20171300906901948     0.7752176557161503
3.63E9                   -0.13244830563451196     0.7884334181573506
3.66E9                   -0.06242942662743137     0.795479229078627
3.69E9                   0.007795923630184909     0.7963293565252122
3.72E9                   0.07768197838856175      0.7910064633295543
3.75E9                   0.14668914975250688      0.7795809801379994
3.78E9                   0.21428816365119713      0.7621701150245606
3.81E9                   0.2799640605320768       0.7389365141982968
3.84E9                   0.3432200350323946       0.7100865889309622
3.87E9                   0.4035810883047658       0.6758685246579277
3.9E9                    0.46059746646181665      0.6365699898176866
3.93E9                   0.5138478581485887       0.5925155649364542
3.96E9                   0.5629423246062014       0.5440639168710711
3.99E9                   0.6075249378140701       0.491604748602064
4.02E9                   0.6472761069169558       0.43555556067756557
4.05E9                   0.6819145809185081       0.37635826453002535
4.08E9                   0.7111991252920277       0.31447568880737303
4.11E9                   0.7349298798980541       0.250388016383376
4.14E9                   0.7529494128153502       0.1845891817107553
4.17E9                   0.7651434866124437       0.11758324846126725
4.2E9                    0.7714415502730323       0.049880778670747444
4.23E9                   0.7718169630335538       -0.018004799473866673
4.26E9                   0.7662869496835949       -0.08556081664868588
4.29E9                   0.7549122837879048       -0.15227896673841462
4.32E9                   0.7377966968361243       -0.2176588718623591
4.35E9                   0.7150860158874495       -0.2812115874009502
4.38E9                   0.6869670365275958       -0.34246302819264285
4.41E9                   0.6536661391284917       -0.4009573011684294
4.44E9                   0.6154476539976046       -0.45625993280981025
4.47E9                   0.5726119766230042       -0.5079609798145592
4.5E9                    0.5254934307586387       -0.5556780073955463
4.53E9                   0.4744578768128751       -0.5990589133442534
4.56E9                   0.419900066665462        -0.6377845697129052
4.59E9                   0.36224075302146624      -0.6715712497453523
4.62E9                   0.3019235697726867       -0.7001728070133844
4.65E9                   0.23941170821089025      -0.7233825763174102
4.68E9                   0.17518442037894816      -0.7410349716135451
4.71E9                   0.10973338480391721      -0.7530067635625742
4.74E9                   0.043558970598905414     -0.7592180271376688
4.77E9                   -0.022833566412706043    -0.7596327564795131
4.8E9                    -0.08893792603518627     -0.7542591483827681
4.83E9                   -0.1542506194600538      -0.7431495569608071
4.86E9                   -0.21827481647083175     -0.726400120577738
4.89E9                   -0.28052416214611126     -0.7041500595698815
4.92E9                   -0.3405265388056199      -0.6765806415305538
4.95E9                   -0.3978277446368658      -0.6439138113778147
4.98E9                   -0.4519950564527633      -0.6064104863327275
5.01E9                   -0.5026206408607922      -0.5643685209503545
5.04E9                   -0.5493247769128726      -0.5181203534312311
5.07E9                   -0.5917588538313551      -0.46803035095006335
5.1E9                    -0.6296081096309076      -0.4144918781628305
5.13E9                   -0.6625940805340356      -0.35792411895039067
5.16E9                   -0.6904767368699869      -0.2987686862202747
5.19E9                   -0.7130562884839716      -0.23748605715300217
5.22E9                   -0.730174650206357       -0.17455187091426083
5.25E9                   -0.7417165639204211      -0.11045312234372505
5.28E9                   -0.7476103762720416      -0.04568427996879554
5.31E9                   -0.7478284695798394      0.019256647201136727
5.34E9                   -0.7423873398222947      0.08387207013823439
5.37E9                   -0.731347312655244       0.14766877943030363
5.4E9                    -0.714811889211429       0.21016186923779812
5.43E9                   -0.6929267188025054      0.27087858409404
5.46E9                   -0.6658782044780369      0.32936204330487656
5.49E9                   -0.6338917574946387      0.38517479780132335
5.52E9                   -0.5972297261578313      0.4379021781411635
5.55E9                   -0.5561890320722149      0.487155398891648
5.58E9                   -0.5110985520878116      0.5325743930171937
5.61E9                   -0.4623162864307544      0.5738303598329395
5.64E9                   -0.4102263521386298      0.610628020051991
5.67E9                   -0.3552358350668093      0.6427075802217506
5.7E9                    -0.2977715243946471      0.6698464131036169
5.73E9                   -0.23827654349844726     0.6918604582885896
5.76E9                   -0.1772068854682253      0.7086053383751856
5.79E9                   -0.11502786451743195     0.7199771748277107
5.82E9                   -0.052210506441467436    0.7259130809838125
5.85E9                   0.010772083295985446     0.7263913133031226
5.88E9                   0.0734483245658522       0.7214310758208895
5.91E9                   0.13535169120431548      0.7110919909876463
5.94E9                   0.1960241236565725       0.6954732646278518
5.97E9                   0.2550193009331393       0.6747125788164032
6.0E9                    0.31190576074863313      0.6489847440110137
