% Model:              three_layers reality at 0.1mm.mph
% Version:            COMSOL 5.6.0.280
% Date:               Mar 6 2022, 21:42
% Table:              表格 1 - 全局计算 1
% freq (Hz)              real(emw.S11) (1)        imag(emw.S11) (1)
300000000                0.5457150340221322       -0.7372352004766395
330000000                0.476100891741849        -0.7822816446803758
360000000                0.40292076989619174      -0.8209128863373796
390000000                0.32673747668218245      -0.8528384642082032
420000000                0.2481434219160395       -0.8778178293338486
450000000                0.16775474721885786      -0.8956633725207628
480000000                0.08620559120740197      -0.9062427769480664
510000000                0.004142405648385861     -0.9094807639872573
540000000                -0.07778171275609616     -0.9053602674697778
570000000                -0.15891268156987304     -0.8939230544710601
600000000                -0.23860106992689234     -0.875269801849488
630000000                -0.3162076890024064      -0.8495596341105774
660000000                -0.3911091013835748      -0.8170091280511587
690000000                -0.46270301056921215     -0.7778907911266292
720000000                -0.5304134864559348      -0.7325310240174385
750000000                -0.5936959818248394      -0.6813075816761676
780000000                -0.6520420930815742      -0.6246465520603307
810000000                -0.704984019030758       -0.5630188768304932
840000000                -0.7520986729190142      -0.4969364432571121
870000000                -0.7930114046431468      -0.42694778234265424
900000000                -0.8273992939880469      -0.3536334123237329
930000000                -0.8549939788742025      -0.2776008722591119
960000000                -0.8755839878587749      -0.19947949384492059
990000000                -0.8890165510945451      -0.1199149638190352
1020000000               -0.8951988700445068      -0.03956373164223695
1050000000               -0.8940988323000605      0.0409126801532994
1080000000               -0.885745164549986       0.12085340479962055
1110000000               -0.8702270233689364      0.19960394005271853
1140000000               -0.8476930302364784      0.27652177875251427
1170000000               -0.8183497638495375      0.3509819037422974
1200000000               -0.7824597290769101      0.4223820922857668
1230000000               -0.7403388279622135      0.4901479777584499
1260000000               -0.6923533637273233      0.5537378201172601
1290000000               -0.6389166135009305      0.6126469411981735
1320000000               -0.580485010099699       0.6664117851130476
1350000000               -0.5175539763977118      0.7146135699803079
1380000000               -0.45065345894605224     0.7568815021700088
1410000000               -0.3803432093918234      0.7928955303458999
1440000000               -0.3072078635614743      0.8223886222384013
1470000000               -0.23185186867171723     0.8451485528660799
1500000000               -0.15489430882728536     0.8610191986070195
1530000000               -0.07696367819116007     0.8699013368432914
1560000000               0.0013073501918114518    0.8717529559733809
1590000000               0.07928711403446692      0.8665890853066411
1620000000               0.15635006630642448      0.854481158555874
1650000000               0.23188175383473109      0.8355559284353499
1680000000               0.305283632288705        0.8099939531480249
1710000000               0.37597768306489493      0.7780276783261063
1740000000               0.44341080090385643      0.7399391403027084
1770000000               0.5070589245779928       0.6960573183917864
1800000000               0.5664308862463419       0.6467551652884875
1830000000               0.6210719585142717       0.5924463456675562
1860000000               0.6705670813954807       0.5335817137219829
1890000000               0.7145437545895682       0.47064556064560015
1920000000               0.7526745833346908       0.40415166323943175
1950000000               0.7846794692252342       0.33463916437042573
1980000000               0.8103274400085525       0.2626683157263175
2010000000               0.8294381153168893       0.1888161122402485
2040000000               0.8418828079468931       0.11367184622524724
2070000000               0.847585262869573        0.03783260711440081
2100000000               0.8465220381869547       -0.03810125079376847
2130000000               0.8387225328576293       -0.11353065488105406
2.16E9                   0.82426866362121         -0.1878623641364814
2.19E9                   0.8032941853975235       -0.26051351804818024
2.22E9                   0.775983632566587        -0.3309161833214609
2.25E9                   0.7425708324204262       -0.3985218866869113
2.28E9                   0.7033369150823419       -0.4628060856335803
2.31E9                   0.6586077434421349       -0.5232724557987148
2.34E9                   0.6087507539516193       -0.5794567861666614
2.37E9                   0.554171358232442        -0.6309302418815687
2.4E9                    0.4953092412264855       -0.6773018785358333
2.43E9                   0.43263493494288296      -0.7182205769203454
2.46E9                   0.3666468171479125       -0.7533768266856351
2.49E9                   0.29786830070576137      -0.7825047651329978
2.52E9                   0.2268447580942281       -0.8053845521155426
2.55E9                   0.1541398406809046       -0.8218448094303566
2.58E9                   0.08033115310701487      -0.8317647379420301
2.61E9                   0.006005472896496045     -0.8350756470401187
2.64E9                   -0.06824624132479187     -0.8317618182356723
2.67E9                   -0.1418338711478663      -0.8218607465587651
2.7E9                    -0.2141730903422846      -0.8054628398568213
2.73E9                   -0.28469020431060166     -0.7827106435473017
2.76E9                   -0.3528268573797836      -0.7537976334437616
2.79E9                   -0.4180445916776053      -0.718966599904572
2.82E9                   -0.4798292367718956      -0.678507636528736
2.85E9                   -0.5376951032319468      -0.6327557439729227
2.88E9                   -0.5911889487143362      -0.5820880612658096
2.91E9                   -0.6398936827080387      -0.5269207409683381
2.94E9                   -0.6834317755553412      -0.4677054892706008
2.97E9                   -0.7214683382600541      -0.40492579707260146
3.0E9                    -0.753713841752108       -0.33909289270018017
3.03E9                   -0.7799264472937043      -0.2707414512120341
3.06E9                   -0.7999139235288819      -0.20042509889588478
3.09E9                   -0.8135351300364846      -0.12871175464667942
3.12E9                   -0.8207010520880346      -0.0561788523235817
3.15E9                   -0.8213753764674205      0.016591510167001364
3.18E9                   -0.8155746035443272      0.08901744857931554
3.21E9                   -0.8033676960747163      0.1605221502790666
3.24E9                   -0.784875270260922       0.2305386667070659
3.27E9                   -0.7602683392616341      0.29851459607308833
3.3E9                    -0.7297666235270857      0.36391661372152484
3.33E9                   -0.6936364459158004      0.4262348098902323
3.36E9                   -0.6521882328015935      0.4849867964351569
3.39E9                   -0.6057736453344806      0.5397215461502743
3.42E9                   -0.5547823679784051      0.5900229300138825
3.45E9                   -0.4996385848205159      0.6355129192718911
3.48E9                   -0.44079717798718987     0.6758544211454138
3.51E9                   -0.3787396871167939      0.7107537194022705
3.54E9                   -0.3139700739761132      0.7399624947289752
3.57E9                   -0.24701034142450454     0.7632794053927322
3.6E9                    -0.1783960602018267      0.7805512162038101
3.63E9                   -0.10867185919599223     0.7916734730812314
3.66E9                   -0.0383869345510556      0.7965907304957129
3.69E9                   0.03190937048386538      0.7952963486230363
3.72E9                   0.10167186836073122      0.7878318849931296
3.75E9                   0.1703636727126476       0.7742861116909497
3.78E9                   0.23746015384247432      0.7547936941135573
3.81E9                   0.3024526799196634       0.7295335713105374
3.84E9                   0.3648521299357894       0.698727080268092
3.87E9                   0.42419217673928244      0.6626358652719323
3.9E9                    0.48003235070635136      0.6215596065059996
3.93E9                   0.5319609029136142       0.5758335890188481
3.96E9                   0.5795974872960246       0.5258261166534578
3.99E9                   0.62259567249899         0.47193576069207543
4.02E9                   0.6606452782850646       0.41458842513552874
4.05E9                   0.693474513415276        0.3542342130193134
4.08E9                   0.7208518783349732       0.2913440897446482
4.11E9                   0.7425877903544006       0.22640635660068212
4.14E9                   0.7585358929003654       0.15992296452790056
4.17E9                   0.7685940212906879       0.09240571084198877
4.2E9                    0.772704812085669        0.024372367093099746
4.23E9                   0.7708559571467831       -0.04365721513572611
4.26E9                   0.763080114147816        -0.1111649806272832
4.29E9                   0.7494544906198745       -0.17763849862691128
4.32E9                   0.7301001187125092       -0.2425747211092348
4.35E9                   0.7051808341758079       -0.3054836557875095
4.38E9                   0.6749019679312266       -0.3658919405182164
4.41E9                   0.6395087543511622       -0.4233463042358803
4.44E9                   0.5992844585838955       -0.4774168957000819
4.47E9                   0.5545482264283489       -0.5277004569723943
4.5E9                    0.5056526637466988       -0.5738233152668147
4.53E9                   0.4529811575441926       -0.6154441651042426
4.56E9                   0.39694495637161414      -0.6522566132468353
4.59E9                   0.33798003307619795      -0.683991461297323
4.62E9                   0.2765437572149471       -0.7104187051402601
4.65E9                   0.21311140686124405      -0.7313492360103526
4.68E9                   0.14817254953936063      -0.7466362339018677
4.71E9                   0.08222731928711689      -0.7561762488764784
4.74E9                   0.0157826125797925       -0.759909967889143
4.77E9                   -0.050651778209750024    -0.7578226633239477
4.8E9                    -0.11656707635648562     -0.7499443151022968
4.83E9                   -0.1814594567533673      -0.7363493933821529
4.86E9                   -0.2448339786265466      -0.7171562864201702
4.89E9                   -0.30620847806417983     -0.6925263603726374
4.92E9                   -0.36511737541432976     -0.662662645107858
4.95E9                   -0.421115347944393       -0.6278081513104111
4.98E9                   -0.4737808188344761      -0.5882438368272193
5.01E9                   -0.5227192190812499      -0.5442862520840515
5.04E9                   -0.5675659889990591      -0.4962849030420774
5.07E9                   -0.6079892985555897      -0.44461937403740104
5.1E9                    -0.6436924786241597      -0.38969625062663726
5.13E9                   -0.674416164912356       -0.33194587447968693
5.16E9                   -0.6999401594941164      -0.271818950644823
5.19E9                   -0.7200850097605977      -0.2097830167084944
5.22E9                   -0.734713292818729       -0.14631877890181982
5.25E9                   -0.7437305803619818      -0.0819163262115844
5.28E9                   -0.7470860525168755      -0.017071248677340858
5.31E9                   -0.7447727343814153      0.047719295680309165
5.34E9                   -0.7368273455220777      0.11196050858000972
5.37E9                   -0.7233297739626765      0.175163816811208
5.4E9                    -0.7044022032776405      0.23685062984840866
5.43E9                   -0.6802079280647636      0.2965559623895572
5.46E9                   -0.6509498886371956      0.35383191073471376
5.49E9                   -0.616868944236602       0.4082509810350325
5.52E9                   -0.5782418914168697      0.4594092673443424
5.55E9                   -0.5353792250181949      0.5069294704688493
5.58E9                   -0.488622636052512       0.5504637375530141
5.61E9                   -0.4383422441102196      0.58969629093185
5.64E9                   -0.3849335711698467      0.6243458054211335
5.67E9                   -0.328814277908531       0.6541674883151218
5.7E9                    -0.2704207007472143      0.6789548186030916
5.73E9                   -0.21020424418670736     0.6985409130836253
5.76E9                   -0.14862769273161833     0.7127995068117557
5.79E9                   -0.08616150455979579     0.7216455586276409
5.82E9                   -0.02328013430318734     0.7250355108408282
5.85E9                   0.03954158928299343      0.7229672379481877
5.88E9                   0.10183202342636816      0.715479711225782
5.91E9                   0.16312620932660932      0.7026523902759345
5.94E9                   0.22296930323516212      0.6846043384011747
5.97E9                   0.28091992424372364      0.6614930525261808
6.0E9                    0.33655339033249004      0.6335130012029222
