% Model:              three_layers reality at 0.1mm.mph
% Version:            COMSOL 5.6.0.280
% Date:               Mar 6 2022, 21:47
% Table:              表格 1 - 全局计算 1
% freq (Hz)              real(emw.S11) (1)        imag(emw.S11) (1)
300000000                0.557117403615537        -0.7526309757737555
330000000                0.48587808277490085      -0.7988209941719573
360000000                0.410974752961533        -0.8384201830733531
390000000                0.3329856326624466       -0.8711337491012124
420000000                0.2525189283355516       -0.8967166157546935
450000000                0.17020716304704175      -0.9149770102092849
480000000                0.08670148485094097      -0.9257792344175759
510000000                0.0026659314988124907    -0.9290457265872271
540000000                -0.08122834771880268     -0.924758472973008
570000000                -0.16430889974307927     -0.912959805124471
600000000                -0.24590777805677178     -0.8937526026044798
630000000                -0.3253673214786259      -0.8672999146395391
660000000                -0.40204586182835644     -0.8338240110193903
690000000                -0.47532331508262554     -0.7936048733830419
720000000                -0.5446066096544006      -0.7469781396420345
750000000                -0.6093349019866903      -0.6943325185244045
780000000                -0.6689845302573323      -0.6361066951057581
810000000                -0.7230736569307781      -0.572785753517738
840000000                -0.771166552432669       -0.5048971481610137
870000000                -0.8128774748317057      -0.43300625999717673
900000000                -0.8478741036037178      -0.35771157968614997
930000000                -0.87588048972346        -0.2796395642731666
960000000                -0.896679489402099       -0.1994392182056471
990000000                -0.9101146542697033      -0.11777645361956822
1020000000               -0.9160915570619459      -0.03532828745044393
1050000000               -0.9145785384200518      0.04722306436590379
1080000000               -0.9056068673865285      0.12919613437869187
1110000000               -0.8892703152306801      0.20991613089854774
1140000000               -0.8657241493528979      0.28872078341359814
1170000000               -0.835183560990131       0.36496604651824294
1200000000               -0.7979215471869818      0.43803160419629866
1230000000               -0.7542662737786694      0.507326120144281
1260000000               -0.7045979519770506      0.5722921832091118
1290000000               -0.6493452663649545      0.6324109017639572
1320000000               -0.5889813964991973      0.6872061060401274
1350000000               -0.5240196782598897      0.7362481227118196
1380000000               -0.4550089537400157      0.7791570922820465
1410000000               -0.38252866087744564     0.8156058055230115
1440000000               -0.30718371506282277     0.845322041627735
1470000000               -0.22959923568782603     0.8680903966407707
1500000000               -0.15041517006470323     0.8837535967999884
1530000000               -0.07028086648628307     0.8922132969216978
1560000000               0.010150353631689946     0.8934303694009673
1590000000               0.09022657666146455      0.8874246942222879
1620000000               0.1693025853557984       0.8742744647902088
1650000000               0.24674501285433906      0.8541150283380985
1680000000               0.3219373231125204       0.8271372830155542
1710000000               0.3942845820104632       0.7935856566553197
1740000000               0.46321798719647483      0.7537556945136107
1770000000               0.5281991281499453       0.7079912851580771
1800000000               0.5887239516242584       0.6566815550246399
1830000000               0.6443264109543034       0.6002574632179546
1860000000               0.6945817813585198       0.5391881285844965
1890000000               0.7391096263720649       0.4739769214822765
1920000000               0.7775764037563072       0.40515735266634456
1950000000               0.8096977023660579       0.3332887912257571
1980000000               0.8352401041859328       0.2589520432160532
2010000000               0.8540226688575366       0.18274482142127818
2040000000               0.865918040771615        0.10527713534476804
2070000000               0.8708531815930751       0.027166628154265095
2100000000               0.8688097333018207       -0.05096611631691017
2130000000               0.8598240176585776       -0.1285022787044103
2.16E9                   0.8439866756606705       -0.2048295108368425
2.19E9                   0.8214419420684032       -0.2793466413948542
2.22E9                   0.7923865319212994       -0.35146838216011356
2.25E9                   0.7570680870153546       -0.42063002697437907
2.28E9                   0.7157830989639629       -0.4862920975578142
2.31E9                   0.668874219955023        -0.5479448119851501
2.34E9                   0.6167269396841175       -0.605112152650889
2.37E9                   0.5597657764787192       -0.6573552673890269
2.4E9                    0.4984503387316691       -0.7042750598090598
2.43E9                   0.4332716765721843       -0.7455141302261595
2.46E9                   0.36474911164190654      -0.7807585224241383
2.49E9                   0.29342731737315425      -0.8097397309430383
2.52E9                   0.21987316354227746      -0.8322370861435051
2.55E9                   0.14467194143724438      -0.8480802468805977
2.58E9                   0.0684229037776685       -0.8571513880192522
2.61E9                   -0.0082656920075868      -0.8593867873941781
2.64E9                   -0.08478177897669036     -0.8547777153532288
2.67E9                   -0.160514716131247       -0.84337066557837
2.7E9                    -0.23486045302535832     -0.8252670101322421
2.73E9                   -0.3072265737048466      -0.8006221515937842
2.76E9                   -0.3770371972313507      -0.7696442196580836
2.79E9                   -0.44373771722116895     -0.7325923388423171
2.82E9                   -0.5067993586752323      -0.6897744827895043
2.85E9                   -0.5657235243478592      -0.6415449273809533
2.88E9                   -0.620045898238277       -0.58830131633766
2.91E9                   -0.6693402710098783      -0.5304813570603748
2.94E9                   -0.7132220516925316      -0.46855916925464114
2.97E9                   -0.7513514308319811      -0.40304131412263583
3.0E9                    -0.7834361625846155      -0.33446253673277027
3.03E9                   -0.8092339364832579      -0.2633812585572303
3.06E9                   -0.8285543135509559      -0.19037486120474256
3.09E9                   -0.8412602061863297      -0.11603480542537432
3.12E9                   -0.8472688863461958      -0.040961632066329114
3.15E9                   -0.846552512074455       0.034240106771207195
3.18E9                   -0.8391381680811641      0.10896693728616991
3.21E9                   -0.8251074217085291      0.1826215253320893
3.24E9                   -0.8045954009787265      0.25461766155342264
3.27E9                   -0.7777894063468068      0.32438512392836816
3.3E9                    -0.7449270721264734      0.39137437349389187
3.33E9                   -0.7062940973269192      0.45506104127229885
3.36E9                   -0.6622215688761184      0.5149501668410286
3.39E9                   -0.6130829032482383      0.5705801509738232
3.42E9                   -0.5592904353916017      0.6215263868199719
3.45E9                   -0.5012916873025984      0.6674045356164904
3.48E9                   -0.4395653524104227      0.7078734149418816
3.51E9                   -0.3746170367588594      0.7426374699126068
3.54E9                   -0.3069748033090747      0.7714488015376947
3.57E9                   -0.23718457113451247     0.7941087321647609
3.6E9                    -0.16580542585366873     0.8104688958181137
3.63E9                   -0.09340490021298678     0.8204318510281157
3.66E9                   -0.020554283233073       0.823951224475676
3.69E9                   0.05217598695465711      0.8210314039143212
3.72E9                   0.12422079737469219      0.8117268075120219
3.75E9                   0.1950246593554116       0.7961407634732943
3.78E9                   0.26404579829519825      0.7744240391740848
3.81E9                   0.33076000875613015      0.7467730633841921
3.84E9                   0.394664260812419        0.7134278877717476
3.87E9                   0.4552800569512277       0.6746699326374553
3.9E9                    0.512156552217245        0.6308195544486392
3.93E9                   0.5648734597570402       0.5822334585968612
3.96E9                   0.6130437649153375       0.5293019627340068
3.99E9                   0.656316262080339        0.4724460993566519
4.02E9                   0.6943779111598993       0.41211453731386904
4.05E9                   0.7269559912425017       0.34878030360880485
4.08E9                   0.7538200134021964       0.282937299127405
4.11E9                   0.7747833481065478       0.21509661998213778
4.14E9                   0.7897045259401069       0.14578271477218527
4.17E9                   0.7984881817903311       0.07552942182407324
4.2E9                    0.8010856280157341       0.004875937007973678
4.23E9                   0.7974950573710636       -0.0656372385084877
4.26E9                   0.7877613879935567       -0.13547232831455439
4.29E9                   0.771975768733639        -0.20409825635223436
4.32E9                   0.7502747634034922       -0.27099454557278385
4.35E9                   0.7228392286040617       -0.33565512377154233
4.38E9                   0.6898928941986271       -0.3975920232780874
4.41E9                   0.6517006507960983       -0.4563389594434831
4.44E9                   0.6085665464866676       -0.5114547688801283
4.47E9                   0.560831496092919        -0.56252668362822
4.5E9                    0.5088707099383417       -0.6091734136037985
4.53E9                   0.45309085443439057      -0.6510480079217107
4.56E9                   0.393926962923112        -0.6878404658326016
4.59E9                   0.33183912091469225      -0.7192800706937492
4.62E9                   0.2673089546238083       -0.7451374248098697
4.65E9                   0.20083595445945157      -0.7652261690081087
4.68E9                   0.13293366518551847      -0.7794043772689547
4.71E9                   0.0641257715766658       -0.7875756220439603
4.74E9                   -0.0050578961720459505   -0.7896897082323916
4.77E9                   -0.07408541761636904     -0.7857430723762668
4.8E9                    -0.1424268795869091      -0.7757788389608051
4.83E9                   -0.20955849467803908     -0.7598865203896301
4.86E9                   -0.27496671177196624     -0.7382013443680805
4.89E9                   -0.3381522796863607      -0.7109031945883237
4.92E9                   -0.3986342162479753      -0.6782151583025184
4.95E9                   -0.45595362996404454     -0.6404016863596237
4.98E9                   -0.5096773418751182      -0.5977663850393083
5.01E9                   -0.5594012611686784      -0.5506494718761656
5.04E9                   -0.6047534788260096      -0.4994249373054407
5.07E9                   -0.6453970573746988      -0.4444974582288945
5.1E9                    -0.6810325088191753      -0.3862991074376678
5.13E9                   -0.7113999636086147      -0.3252858940955823
5.16E9                   -0.7362810372692385      -0.2619341577569766
5.19E9                   -0.7555003961238629      -0.19673682629012107
5.22E9                   -0.768927010825772       -0.13019954293079367
5.25E9                   -0.7764750722836813      -0.0628366736349759
5.28E9                   -0.7781045371527109      0.004832778006555199
5.31E9                   -0.7738212753141539      0.07228930133122904
5.34E9                   -0.7636768094032361      0.1390169942812348
5.37E9                   -0.7477676593948698      0.2045076031783184
5.4E9                    -0.7262343239107989      0.2682644382025082
5.43E9                   -0.6992599373484887      0.3298061356462012
5.46E9                   -0.6670686372826915      0.3886702559344916
5.49E9                   -0.6299236641243005      0.4444167165546106
5.52E9                   -0.5881252010442984      0.4966310594754731
5.55E9                   -0.5420079519288622      0.544927545132064
5.58E9                   -0.49193845127426955     0.5889520533964892
5.61E9                   -0.43831210311548113     0.628384759472906
5.64E9                   -0.3815499557562261      0.6629425423445677
5.67E9                   -0.32209523413017993     0.6923810779085365
5.7E9                    -0.26040967007181276     0.7164965709309821
5.73E9                   -0.19696968837858755     0.7351270918045215
5.76E9                   -0.13226251728669142     0.7481535051642504
5.79E9                   -0.06678228983755811     0.7555000026293429
5.82E9                   -0.0010261867549491656   0.7571342718804541
5.85E9                   0.06450935197315033      0.7530673407797656
5.88E9                   0.12933233988167353      0.7433531266761761
5.91E9                   0.19295888252078194      0.7280877039157831
5.94E9                   0.25491673824898914      0.7074082869513428
5.97E9                   0.31474878526371913      0.6814919193962258
6.0E9                    0.3720163658640667       0.6505538620593344
