% Model:              three_layers reality at 0.1mm.mph
% Version:            COMSOL 5.6.0.280
% Date:               Feb 23 2022, 10:26
% Table:              表格 1 - 全局计算 1
% freq (Hz)              real(emw.S11) (1)        imag(emw.S11) (1)
300000000                0.49476108778678596      -0.8027421135624989
330000000                0.41166495800063035      -0.8459248539472729
360000000                0.3250423955759256       -0.8806058616769423
390000000                0.23573508959275138      -0.9065181136219457
420000000                0.1446069085734507       -0.9234745071054834
450000000                0.052535782677698255     -0.9313706679306455
480000000                -0.03959471870589351     -0.9301866571018098
510000000                -0.13090396309203242     -0.9199876088695863
540000000                -0.22052285120986304     -0.9009233377030577
570000000                -0.30760231179252556     -0.8732269558341517
600000000                -0.3913215848145529      -0.8372125478859354
630000000                -0.4708961931178145      -0.7932719538054018
660000000                -0.5455855101235939      -0.7418707168163563
690000000                -0.6146998403287807      -0.68354325856062
720000000                -0.6776069379523039      -0.6188873485833777
750000000                -0.7337378965723071      -0.5485579407971871
780000000                -0.7825923522619824      -0.47326045356435886
810000000                -0.823742950636344       -0.39374357471524246
840000000                -0.8568390383821791      -0.3107916752500206
870000000                -0.8816095483203981      -0.2252169184840195
900000000                -0.8978650569971083      -0.1378511526208798
930000000                -0.9054990029694765      -0.04953767562364057
960000000                -0.9044880635049817      0.03887703940024803
990000000                -0.8948916965354208      0.12655157103173248
1020000000               -0.8768508636048389      0.21265764353208216
1050000000               -0.8505859582038937      0.2963880062398558
1080000000               -0.816393971853994       0.3769640200946236
1110000000               -0.7746449378981752      0.4536428780236147
1140000000               -0.7257776998588282      0.5257243910287651
1170000000               -0.6702950573867215      0.5925572779376455
1200000000               -0.608758348266463       0.6535449032931324
1230000000               -0.5417815297737615      0.7081504144982748
1260000000               -0.470024826210559       0.7559012371610287
1290000000               -0.39418801278365223     0.7963928945235673
1320000000               -0.31500340796017046     0.8292921249090335
1350000000               -0.23322864776320024     0.8543392787270325
1380000000               -0.14963931614266085     0.871349984194432
1410000000               -0.06502150502014103     0.8802160786354609
1440000000               0.019835623227156065     0.8809058094591489
1470000000               0.10414719978885234      0.8734633160365244
1500000000               0.18713987169262652      0.8580074105458101
1530000000               0.2680588165484979       0.8347296820570267
1560000000               0.34617448802797957      0.8038919541885945
1590000000               0.42078903415230173      0.7658231320594692
1620000000               0.49124233519811755      0.7209154791799233
1650000000               0.5569176126334551       0.6696203694288294
1680000000               0.6172465660947257       0.6124435630226968
1710000000               0.6717140006502188       0.5499400588150712
1740000000               0.719861912534843        0.4827085779395788
1770000000               0.7612930074585607       0.41138573611747414
1800000000               0.7956736319253388       0.3366399634420218
1830000000               0.8227361043773908       0.2591652316111351
1860000000               0.8422804398051789       0.17967464887180906
1890000000               0.8541754686301062       0.09889398237566692
1920000000               0.858359358104324        0.017555166420637407
1950000000               0.8548395527185321       -0.06361014826129231
1980000000               0.8436921585315713       -0.14387695373096512
2010000000               0.8250608051722996       -0.22253311082424282
2040000000               0.7991550271667475       -0.2988854130962927
2070000000               0.7662482110120323       -0.3722654804199188
2100000000               0.7266751509138505       -0.44203550340298037
2130000000               0.6808292350807538       -0.5075938984624226
2.16E9                   0.6291592304881451       -0.5683809761487578
2.19E9                   0.5721655282630558       -0.623884749206724
2.22E9                   0.5103955426000129       -0.6736469641247629
2.25E9                   0.4444377540602375       -0.7172692445228775
2.28E9                   0.374913782642102        -0.7544187987610507
2.31E9                   0.3024681388830939       -0.7848324914683245
2.34E9                   0.2277562353844383       -0.8083175549859581
2.37E9                   0.15143276632868458      -0.8247475635141165
2.4E9                    0.07414370891659967      -0.8340541305332705
2.43E9                   -0.0034755770375552333   -0.8362174929400462
2.46E9                   -0.08079678137575126     -0.8312605084612633
2.49E9                   -0.15719356547718277     -0.8192488180295581
2.52E9                   -0.23203956551325905     -0.8002961263762689
2.55E9                   -0.3047116183854919      -0.7745709052448021
2.58E9                   -0.37459724683723483     -0.7423010376699669
2.61E9                   -0.4411039528046303      -0.7037749126519759
2.64E9                   -0.5036681890054953      -0.6593393050633192
2.67E9                   -0.5617629295036776      -0.6093951491122768
2.7E9                    -0.6149036347452093      -0.5543922530627452
2.73E9                   -0.6626528366577469      -0.4948236315221423
2.76E9                   -0.7046236672202936      -0.43121978574157654
2.79E9                   -0.740482597836094       -0.3641430463380819
2.82E9                   -0.7699515653685601      -0.29418199056491023
2.85E9                   -0.7928095832843548      -0.22194591323538637
2.88E9                   -0.8088938848156911      -0.1480593304427481
2.91E9                   -0.8181006155962808      -0.07315650718708418
2.94E9                   -0.8203850787956445      0.0021239860685988315
2.97E9                   -0.8157615307231221      0.07714467097676936
3.0E9                    -0.8043025250275303      0.15127448693554252
3.03E9                   -0.786137806770383       0.22389401268832568
3.06E9                   -0.7614527623211224      0.2944005478672997
3.09E9                   -0.7304864363903911      0.3622130171820737
3.12E9                   -0.693529133042857       0.42677666017424154
3.15E9                   -0.6509196225159257      0.4875674719037342
3.18E9                   -0.6030419796246168      0.5440963636250858
3.21E9                   -0.5503220817469903      0.5959130172747179
3.24E9                   -0.4932237943632484      0.6426094126602626
3.27E9                   -0.4322448699487491      0.6838230100266639
3.3E9                    -0.3679125820473762      0.7192395724455193
3.33E9                   -0.3007791118858849      0.7485956108603747
3.36E9                   -0.2314167016406975      0.7716804293295261
3.39E9                   -0.1604125883860281      0.7883377393877287
3.42E9                   -0.08836373804299882     0.7984668017738271
3.45E9                   -0.015871410505650375    0.8020230436019867
3.48E9                   0.056464393495523346     0.7990180925912092
3.51E9                   0.12805052795630606      0.7895191715087826
3.54E9                   0.1983062356100483       0.7736478091259302
3.57E9                   0.26666849171011403      0.751577851019386
3.6E9                    0.33259701470619807      0.7235327929420656
3.63E9                   0.39557880359722514      0.6897825055247488
3.66E9                   0.4551320831895833       0.6506394627873706
3.69E9                   0.5108095754721784       0.6064546195237907
3.72E9                   0.562201059501587        0.5576130999534209
3.75E9                   0.6089352270499007       0.5045298636907768
3.78E9                   0.6506808845779073       0.4476455100118044
3.81E9                   0.6871475979410875       0.3874223683235261
3.84E9                   0.7180859270418645       0.32434099526655596
3.87E9                   0.743287447241417        0.25889714499993927
3.9E9                    0.7625847831739254       0.19159919383065638
3.93E9                   0.7758518648657088       0.12296589476308817
3.96E9                   0.7830045422883377       0.05352424150451947
3.99E9                   0.7840015724912374       -0.01619282838175748
4.02E9                   0.7788458568258865       -0.08564914120361039
4.05E9                   0.7675856973048444       -0.15430856714692245
4.08E9                   0.7503157936745343       -0.2216389046101145
4.11E9                   0.727177725742704        -0.2871162708757084
4.14E9                   0.6983597444874494       -0.35022980576323004
4.17E9                   0.6640958014743052       -0.4104864538384108
4.2E9                    0.6246638482180785       -0.46741560386974695
4.23E9                   0.5803835114609838       -0.5205734182912244
4.26E9                   0.5316132849722266       -0.5695467584130325
4.29E9                   0.4787473734754059       -0.613956681222239
4.32E9                   0.42221229037370595      -0.6534615328576762
4.35E9                   0.36246326469241374      -0.6877596838879161
4.38E9                   0.2999804713624716       -0.7165919437517149
4.41E9                   0.23526507475858624      -0.7397436659876891
4.44E9                   0.16883507235161163      -0.7570465254093142
4.47E9                   0.10122093967858987      -0.7683799245825375
4.5E9                    0.03296110223688888      -0.7736719759652865
4.53E9                   -0.03540271400007651     -0.7729000092964656
4.56E9                   -0.10333017955697912     -0.7660905690602096
4.59E9                   -0.17028701847385383     -0.7533188911039783
4.62E9                   -0.23574953540127197     -0.7347078767387724
4.65E9                   -0.29920893429242296     -0.710426611922981
4.68E9                   -0.36017537526756166     -0.6806885011904493
4.71E9                   -0.4181817511103386      -0.645749092835938
4.74E9                   -0.47278719923554163     -0.605903658242059
4.77E9                   -0.523580386026844       -0.5614845559112137
4.8E9                    -0.5701825972837368      -0.5128583708670543
4.83E9                   -0.6122506399279284      -0.4604227892587268
4.86E9                   -0.6494795159868203      -0.4046031609174292
4.89E9                   -0.6816047874264796      -0.345848724598971
4.92E9                   -0.7084045262729464      -0.2846285154386739
4.95E9                   -0.7297007478309036      -0.2214270277316659
4.98E9                   -0.7453602557463624      -0.15673975327478692
5.01E9                   -0.7552948795009268      -0.0910687436935418
5.04E9                   -0.7594611469452667      -0.024918346737212146
5.07E9                   -0.7578594937776013      0.041208762065750956
5.1E9                    -0.7505331534161578      0.10681518761940573
5.13E9                   -0.7375668794338623      0.17141207334843567
5.16E9                   -0.7190856187767964      0.23452209185006004
5.19E9                   -0.695253181227691       0.29568229467430446
5.22E9                   -0.666270861891828       0.3544469399566179
5.25E9                   -0.6323759062023951      0.4103903533670386
5.28E9                   -0.5938396953875545      0.46310978371961475
5.31E9                   -0.5509655841747884      0.5122281343036977
5.34E9                   -0.5040864168126291      0.5573964260090557
5.37E9                   -0.4535618349512124      0.5982958914462414
5.4E9                    -0.39977552901022606     0.6346396877527454
5.43E9                   -0.34313255868964454     0.6661743060215393
5.46E9                   -0.2840567951216739      0.692680808501289
5.49E9                   -0.22298845082753554     0.713976024458125
5.52E9                   -0.16038159610108169     0.7299137892717225
5.55E9                   -0.09670152938276254     0.740386240041848
5.58E9                   -0.032421877383662694    0.7453251067760289
5.61E9                   0.031978658323593305     0.7447028776701382
5.64E9                   0.0960199270410314       0.7385336805914159
5.67E9                   0.15922426827289887      0.7268737186971973
5.7E9                    0.22112062957764939      0.7098211328312339
5.73E9                   0.2812486742877752       0.6875152374576985
5.76E9                   0.33916268394916216      0.660135175788029
5.79E9                   0.3944351141119373       0.627898129872555
5.82E9                   0.44665976163523297      0.5910572625139733
5.85E9                   0.4954546040152213       0.5498995383980148
5.88E9                   0.5404644285635168       0.5047434875996466
5.91E9                   0.5813633591697362       0.45593688053829756
5.94E9                   0.6178573263013807       0.40385422397983944
5.97E9                   0.6496864493451675       0.34889398114905096
6.0E9                    0.6766272426363589       0.2914754546443316
