% Model:              three_layers reality at 0.1mm.mph
% Version:            COMSOL 5.6.0.280
% Date:               Mar 7 2022, 19:27
% Table:              表格 1 - 全局计算 1
% freq (Hz)              real(emw.S11) (1)        imag(emw.S11) (1)
300000000                0.49436104448554413      -0.7889083142099039
330000000                0.4141047918523871       -0.8309690738507325
360000000                0.3305239876845436       -0.8650691033165375
390000000                0.2443654050556031       -0.8909500502075173
420000000                0.15640372166679983      -0.9084222780231358
450000000                0.06743306046501         -0.9173687701949073
480000000                -0.021741409021699812    -0.9177476507042819
510000000                -0.11031177929189102     -0.9095935217447999
540000000                -0.19747558162315393     -0.8930177503407841
570000000                -0.28244378137415804     -0.8682077972791801
600000000                -0.36444853650240916     -0.8354256604523558
630000000                -0.4427506608622438      -0.7950054936932829
660000000                -0.5166467326955034      -0.7473504574970344
690000000                -0.5854757898702249      -0.6929288569268094
720000000                -0.648625555330506       -0.632269623175237
750000000                -0.7055381392022593      -0.565957197901311
780000000                -0.7557151693792701      -0.49462588177539984
810000000                -0.7987223062570293      -0.4189537125331748
840000000                -0.8341931041340733      -0.339655940267187
870000000                -0.8618321877454989      -0.2574781702801918
900000000                -0.881417719152424       -0.17318924631984411
930000000                -0.8928031376133871      -0.08757394781943868
960000000                -0.8959181620301347      -0.0014255763862288592
990000000                -0.8907690532953872      0.0844614940055498
1020000000               -0.8774381410266247      0.1692992285199957
1050000000               -0.8560826266160687      0.2523132319354781
1080000000               -0.8269326815681937      0.33274986730234635
1110000000               -0.7902888669107822      0.40988312486491724
1140000000               -0.7465189059770655      0.48302117660351923
1170000000               -0.6960538487926541      0.5515125560965418
1200000000               -0.6393836718480557      0.6147519079639919
1230000000               -0.5770523621478436      0.6721852559746953
1260000000               -0.5096525384773786      0.7233147450870322
1290000000               -0.4378196669724303      0.7677028179339479
1320000000               -0.36222593073469506     0.8049757929856716
1350000000               -0.2835738159935479      0.834826817688586
1380000000               -0.2025894787838839      0.8570181765684307
1410000000               -0.1200159571709783      0.8713829408779514
1440000000               -0.036606294561533484    0.8778259528206871
1470000000               0.046883360916564955     0.876324144006082
1500000000               0.12970061676936204      0.8669261940354627
1530000000               0.21110359349196184      0.849751541269622
1560000000               0.2903675186928412       0.8249887637040221
1590000000               0.3667910997570678       0.7928933534463568
1620000000               0.4397026207111848       0.7537849134578148
1650000000               0.5084657118855125       0.7080438101141386
1680000000               0.5724847453426668       0.6561073195356854
1710000000               0.6312098133784801       0.5984653095905816
1740000000               0.6841412519586267       0.5356555030942886
1770000000               0.7308336762072685       0.4682583707243622
1800000000               0.7708995003434027       0.3968917047547127
1830000000               0.8040119202022652       0.3222049267829145
1860000000               0.8299073425948884       0.24487318398795882
1890000000               0.84838725228303         0.16559128918288402
1920000000               0.8593195143617323       0.08506755970900443
1950000000               0.8626391174691712       0.004017608644530288
1980000000               0.8583483714185722       -0.07684186172695762
2010000000               0.8465165812683271       -0.15679922047816552
2040000000               0.827279227872749        -0.23515398972882223
2070000000               0.8008366903362554       -0.3112228315137982
2100000000               0.7674525444465623       -0.38434544909275
2130000000               0.7274514548668339       -0.45389044583192617
2.16E9                   0.6812166345870243       -0.5192612227532791
2.19E9                   0.6291867555557698       -0.5799020200081741
2.22E9                   0.5718520489399103       -0.635304175881637
2.25E9                   0.5097491541119          -0.68501251746399
2.28E9                   0.44345417001700516      -0.7286314284281303
2.31E9                   0.37357356029223754      -0.7658295729075526
2.34E9                   0.30073333575254807      -0.7963417671285632
2.37E9                   0.22556825147125395      -0.8199667110734169
2.4E9                    0.14871382893830987      -0.8365607926650533
2.43E9                   0.07080351005671713      -0.8460305205000389
2.46E9                   -0.007529307982940914    -0.8483274971865596
2.49E9                   -0.08564756692773567     -0.8434485557051352
2.52E9                   -0.16290919494817332     -0.831440474937039
2.55E9                   -0.2386702234641696      -0.8124062297583976
2.58E9                   -0.3122917904791545      -0.786509674431945
2.61E9                   -0.3831489965876858      -0.7539771679439711
2.64E9                   -0.450639710984761       -0.7150962700042979
2.67E9                   -0.5141922831750664      -0.6702124018134545
2.7E9                    -0.5732718921864793      -0.6197243844908993
2.73E9                   -0.6273856761393009      -0.5640794747316782
2.76E9                   -0.6760868996700756      -0.5037682182437255
2.79E9                   -0.7189783838714847      -0.4393192450811343
2.82E9                   -0.7557153496090305      -0.3712940330426581
2.85E9                   -0.7860077584277674      -0.3002816305805813
2.88E9                   -0.8096221893611765      -0.22689332738748563
2.91E9                   -0.8263832629034189      -0.1517572701923828
2.94E9                   -0.8361746100211894      -0.0755130331967543
2.97E9                   -0.8389393791460397      0.001193836459442494
3.0E9                    -0.8346802742445889      0.07771726922878122
3.03E9                   -0.8234591201123749      0.15341608467157755
3.06E9                   -0.8053959556403865      0.22765932493233954
3.09E9                   -0.7806676612450509      0.29983146928927457
3.12E9                   -0.7495061323196787      0.36933748884586703
3.15E9                   -0.7121960158962264      0.4356077020701514
3.18E9                   -0.6690720322095727      0.4981023950107796
3.21E9                   -0.6205159057684633      0.5563161744045662
3.24E9                   -0.5669529316814387      0.6097820262272143
3.27E9                   -0.5088482018381656      0.6580750563451314
3.3E9                    -0.4467025130136154      0.70081589177849
3.33E9                   -0.3810479755134979      0.7376737205610846
3.36E9                   -0.3124433385831295      0.7683689441589858
3.39E9                   -0.2414690488350023      0.7926754096279888
3.42E9                   -0.1687220623512694      0.8104221799619046
3.45E9                   -0.0948104413249956      0.821494792412773
3.48E9                   -0.020347782427454678    0.8258359489823415
3.51E9                   0.05405245411327915      0.8234455840394453
3.54E9                   0.1277826213051684       0.814380264487472
3.57E9                   0.20024645238925506      0.7987519000436922
3.6E9                    0.27086438858154976      0.7767257740743109
3.63E9                   0.3390785376994071       0.7485179444744436
3.66E9                   0.4043571492749523       0.7143921020133593
3.69E9                   0.46619851994162187      0.6746560030824732
3.72E9                   0.5241342774937058       0.6296576114900636
3.75E9                   0.5777320275800237       0.5797810913027558
3.78E9                   0.6265973820011755       0.5254427943350878
3.81E9                   0.6703754267120012       0.46708738257101684
3.84E9                   0.7087517346075511       0.405184211431303
3.87E9                   0.7414530791138937       0.34022406223412277
3.9E9                    0.7682480429746342       0.2727162433991514
3.93E9                   0.7889477192036882       0.20318598619321918
3.96E9                   0.8034066512746556       0.13217196630504258
3.99E9                   0.8115240602332815       0.060223721183802925
4.02E9                   0.8132452832758439       -0.012101268396628338
4.05E9                   0.8085632400801068       -0.08424100080013393
4.08E9                   0.7975196832219447       -0.15563293932795993
4.11E9                   0.7802059923628992       -0.2257185009543914
4.14E9                   0.7567633308259115       -0.2939478912725874
4.17E9                   0.7273820742560378       -0.35978507798465775
4.2E9                    0.6923005158233068       -0.4227126947792962
4.23E9                   0.6518029269739718       -0.48223670775528604
4.26E9                   0.6062170930746078       -0.5378907392850064
4.29E9                   0.5559114468382677       -0.5892400087965123
4.32E9                   0.5012918971839859       -0.6358848985758199
4.35E9                   0.4427984115343495       -0.6774641759035096
4.38E9                   0.3809013718083041       -0.7136579000418231
4.41E9                   0.3160977004427361       -0.74419002197238
4.44E9                   0.24890674767151122      -0.7688306579533144
4.47E9                   0.17986594263385725      -0.7873979957462467
4.5E9                    0.10952623221504965      -0.7997597811302227
4.53E9                   0.03844735551054317      -0.8058343338062226
4.56E9                   -0.032806977185548196    -0.8055910545581129
4.59E9                   -0.1036739179621197      -0.7990504068466228
4.62E9                   -0.1735962405430831      -0.7862833825880053
4.65E9                   -0.2420269464480339      -0.767410489227078
4.68E9                   -0.3084336603368038      -0.7426003171042135
4.71E9                   -0.37230278738523337     -0.7120677551962334
4.74E9                   -0.4331434374292431      -0.6760719142009516
4.77E9                   -0.4904911420099855      -0.634913789304802
4.8E9                    -0.543911391239622       -0.5889336597091369
4.83E9                   -0.5930029950712306      -0.538508192614936
4.86E9                   -0.6374012356232058      -0.4840472095413401
4.89E9                   -0.676780738387039       -0.4259900885463315
4.92E9                   -0.7108579653476774      -0.3648018129851449
4.95E9                   -0.7393932313351299      -0.30096872442852723
4.98E9                   -0.7621921675411407      -0.23499408109651887
5.01E9                   -0.7791065982285302      -0.16739355257794686
5.04E9                   -0.7900348499420536      -0.09869078925095065
5.07E9                   -0.7949215664574674      -0.02941318681151478
5.1E9                    -0.7937571446782763      0.03991207744606765
5.13E9                   -0.7865769228635666      0.10876172264567484
5.16E9                   -0.7734602322856556      0.17661980869310617
5.19E9                   -0.7545293665656276      0.24298104510400656
5.22E9                   -0.729948446160052       0.3073540660105161
5.25E9                   -0.6999220903783628      0.36926472650264563
5.28E9                   -0.6646937885521436      0.428259395248786
5.31E9                   -0.6245438996562901      0.48390814210901256
5.34E9                   -0.5797872895676954      0.5358076861868154
5.37E9                   -0.5307706977942959      0.5835839968800896
5.4E9                    -0.47786997097245526     0.6268945136843054
5.43E9                   -0.4214872900531117      0.6654300339781885
5.46E9                   -0.36204846126724793     0.6989163755473395
5.49E9                   -0.3000002649699843      0.7271159332101004
5.52E9                   -0.2358077901572534      0.7498292184213764
5.55E9                   -0.16995164444808247     0.7668964127612917
5.58E9                   -0.1029249253784899      0.7781988997216572
5.61E9                   -0.03522986615687653     0.7836606795899788
5.64E9                   0.03262587901493337      0.7832495305881793
5.67E9                   0.10013327630502414      0.7769777646991445
5.7E9                    0.1667861734330668       0.7649024470894433
5.73E9                   0.23208561549133738      0.747125007133129
5.76E9                   0.2955440307606823       0.7237902569353928
5.79E9                   0.3566891376471102       0.6950849216114043
5.82E9                   0.41506750725111063      0.6612358363925944
5.85E9                   0.4702478118000423       0.6225079538707612
5.88E9                   0.5218238523053705       0.579202237830044
5.91E9                   0.5694174632923394       0.5316534351217757
5.94E9                   0.612681345863032        0.48022765563383607
5.97E9                   0.6513018135840536       0.4253196740405484
6.0E9                    0.6850013798259248       0.367349890751802
