% Model:              three_layers reality at 0.1mm.mph
% Version:            COMSOL 5.6.0.280
% Date:               Mar 3 2022, 10:59
% Table:              表格 1 - 全局计算 1
% freq (Hz)              real(emw.S11) (1)        imag(emw.S11) (1)
300000000                0.6228847548301037       -0.7497947799090087
330000000                0.5551248495717994       -0.8009766771441923
360000000                0.48346132351056625      -0.845962463414752
390000000                0.4082479723372087       -0.8845817970064884
420000000                0.33004993805451943      -0.9165537936132957
450000000                0.24944385255854337      -0.9416519710507766
480000000                0.1670274251130735       -0.9596979685322019
510000000                0.08341217369514933      -0.9705649364793569
540000000                -7.811513220646661E-4    -0.9741787419854078
570000000                -0.08492721401209309     -0.9705187305640935
600000000                -0.16840078997583474     -0.9596180531372558
630000000                -0.2505814750983965      -0.9415635617849585
660000000                -0.3308583707825891      -0.9164952782908671
690000000                -0.4086347059827515      -0.8846054421191006
720000000                -0.4833323600154931      -0.8461371466429948
750000000                -0.55439625093918        -0.8013825751149382
780000000                -0.6212985545065718      -0.7506808502797307
810000000                -0.6835427190814458      -0.6944155149558835
840000000                -0.7406672452556577      -0.6330116631150035
870000000                -0.7922491986924906      -0.5669327444932643
900000000                -0.8379074296244435      -0.4966770663238214
930000000                -0.8773054702497671      -0.4227740221984487
960000000                -0.9101540887546723      -0.3457800758139659
990000000                -0.9362134778065596      -0.2662745328958624
1020000000               -0.9552950603128223      -0.18485513471170542
1050000000               -0.9672628976893156      -0.10213350828559174
1080000000               -0.9720346894134168      -0.018730510233883554
1110000000               -0.9695823559073559      0.06472849836124821
1140000000               -0.9599322006385921      0.14761840817980518
1170000000               -0.943164650627524       0.2293191111274306
1200000000               -0.919413578123708       0.30922020412421297
1230000000               -0.8888652099902115      0.3867256102983646
1260000000               -0.8517566344132922      0.4612580811861491
1290000000               -0.8083739182787073      0.5322635435523554
1320000000               -0.7590498514202283      0.599215257576887
1350000000               -0.704161337249108       0.6616177537797523
1380000000               -0.6441264517552772      0.7190105188547773
1410000000               -0.579401195684877       0.7709714023035454
1440000000               -0.5104759671334655      0.8171197185882243
1470000000               -0.43787178310547303     0.8571190225723095
1500000000               -0.3621362816541618      0.8906795379042235
1530000000               -0.2838395359683485      0.9175602223339441
1560000000               -0.20356971453755923     0.937570455744487
1590000000               -0.12192862129914649     0.9505713406367665
1620000000               -0.0395271507391767      0.9564766076778469
1650000000               0.043019307280085434     0.9552531220587973
1680000000               0.12509547748560906      0.9469209895557177
1710000000               0.20609078989985577      0.9315532642611208
1740000000               0.28540391652527947      0.9092752628498952
1770000000               0.36244722121233136      0.880263493151986
1800000000               0.4366510901356403       0.8447442075716339
1830000000               0.5074681120919561       0.802991594373553
1860000000               0.5743770789281568       0.755325622451054
1890000000               0.63688677828039         0.7021095572935739
1920000000               0.6945395522502555       0.6437471682938203
1950000000               0.7469145980440814       0.5806796489892904
1980000000               0.7936309880841915       0.5133822741191069
2010000000               0.8343503895620096       0.4423608186045649
2040000000               0.8687794655434747       0.3681477650803472
2070000000               0.896671941953882        0.2912983278469649
2100000000               0.9178303271938888       0.21238632211079012
2130000000               0.932107273593898        0.1319999081298778
2.16E9                   0.9394065721322857       0.050737240954478346
2.19E9                   0.939683774686306        -0.030797943874845326
2.22E9                   0.9329464402564143       -0.1120007769737693
2.25E9                   0.9192540043404087       -0.19226970330509108
2.28E9                   0.8987172730864007       -0.27101090052422927
2.31E9                   0.8714975463445029       -0.3476426370401273
2.34E9                   0.837805376025279        -0.4215995397555025
2.37E9                   0.7978989685669817       -0.49233674208644396
2.4E9                    0.7520822418124014       -0.5593338845751195
2.43E9                   0.7007025481823729       -0.6220989409569988
2.46E9                   0.6441480766932159       -0.6801718432098216
2.49E9                   0.5828449468061502       -0.7331278787823704
2.52E9                   0.517254008573586        -0.7805808306149802
2.55E9                   0.4478673675273703       -0.8221858271580503
2.58E9                   0.37520466202067415      -0.8576418666917175
2.61E9                   0.2998091339019796       -0.8866939841261534
2.64E9                   0.2222435452039596       -0.9091350424442673
2.67E9                   0.143085993833909        -0.9248071529282527
2.7E9                    0.06292566346161675      -0.933602745999928
2.73E9                   -0.017641480920242893    -0.935465312708224
2.76E9                   -0.09801705473312233     -0.9303898174200553
2.79E9                   -0.17760466807651343     -0.9184227601165804
2.82E9                   -0.2558143669829514      -0.8996618592363297
2.85E9                   -0.33206705793831165     -0.8742553352379874
2.88E9                   -0.4057988657154901      -0.8424007912049558
2.91E9                   -0.47646537732049526     -0.8043437004915867
2.94E9                   -0.5435457322843494      -0.760375518886733
2.97E9                   -0.6065465253106853      -0.7108314418863788
3.0E9                    -0.665005491866621       -0.656087828499792
3.03E9                   -0.7184949498759271      -0.5965593136730505
3.06E9                   -0.7666249721651024      -0.532695632726865
3.09E9                   -0.8090462662157315      -0.4649781827406332
3.12E9                   -0.8454527397358836      -0.3939163474311934
3.15E9                   -0.8755837323757323      -0.32004361438960555
3.18E9                   -0.8992258968122535      -0.2439135148590717
3.21E9                   -0.9162147148707606      -0.16609541810454942
3.24E9                   -0.9264356375155691      -0.08717021353062508
3.27E9                   -0.9298248405743421      -0.007725914409523572
3.3E9                    -0.9263695911929937      0.07164678175334482
3.33E9                   -0.9161082233514398      0.1503589416545758
3.36E9                   -0.8991297239124547      0.22782781828936882
3.39E9                   -0.8755729338621809      0.30348121242876025
3.42E9                   -0.8456253725886796      0.3767617394104519
3.45E9                   -0.8095216959774487      0.4471309686297546
3.48E9                   -0.7675418021002541      0.5140734038947476
3.51E9                   -0.7200086010513962      0.5771002745622925
3.54E9                   -0.6672854679320266      0.6357531092435847
3.57E9                   -0.6097734008393036      0.6896070652755784
3.6E9                    -0.547907907189188       0.7382739903989313
3.63E9                   -0.48215564451692405     0.7814051943313554
3.66E9                   -0.4130108430466475      0.8186939113079555
3.69E9                   -0.3409915385682826      0.8498774373384986
3.72E9                   -0.2666356459055949      0.874738928154234
3.75E9                   -0.19049690326815993     0.8931088472698558
3.78E9                   -0.113140718479249       0.9048660559523145
3.81E9                   -0.03513994861806715     0.9099385394983168
3.84E9                   0.04292935577170436      0.9083037668959417
3.87E9                   0.1204922103934461       0.899988683280729
3.9E9                    0.19697892953533228      0.8850693370866269
3.93E9                   0.27182929946148776      0.8636701464097414
3.96E9                   0.3444966620221708       0.8359628118707522
3.99E9                   0.41445187784813664      0.802164886260424
4.02E9                   0.48118713956958814      0.7625380144525837
4.05E9                   0.5442196073743549       0.7173858601435961
4.08E9                   0.6030948415357508       0.6670517387322594
4.11E9                   0.6573900094273732       0.6119159777313484
4.14E9                   0.7067168475974399       0.5523930272970772
4.17E9                   0.7507243624211128       0.4889283435068558
4.2E9                    0.7891012543105319       0.42199506728644276
4.23E9                   0.821578052125966        0.35209052159459747
4.26E9                   0.8479289450437801       0.27973255020516374
4.29E9                   0.8679733002658981       0.20545572267389384
4.32E9                   0.881576856721948        0.12980743153810678
4.35E9                   0.8886525873107012       0.053343908991437684
4.38E9                   0.8891612250238577       -0.02337380942497859
4.41E9                   0.8831114507166667       -0.09978394644207365
4.44E9                   0.8705597423800371       -0.17532804351895068
4.47E9                   0.8516098870399986       -0.24945499351554012
4.5E9                    0.8264121577348228       -0.3216250193563273
4.53E9                   0.7951621593665564       -0.39131357190770644
4.56E9                   0.7580993491117991       -0.45801511979827914
4.59E9                   0.7155052396148212       -0.5212468033190434
4.62E9                   0.6677012961325005       -0.5805519246069107
4.65E9                   0.6150465418456286       -0.6355032471814409
4.68E9                   0.5579348887330529       -0.6857060790406875
4.71E9                   0.49679221412532204      -0.7308011156228933
4.74E9                   0.43207320536313465      -0.7704670213764285
4.77E9                   0.3642579965792157       -0.8044227313857668
4.8E9                    0.2938486227359482       -0.8324294570968634
4.83E9                   0.2213653166263482       -0.8542923825394246
4.86E9                   0.14734267475676807      -0.8698620394616046
4.89E9                   0.07232571906818581      -0.8790353512146439
4.92E9                   -0.003134118344240733    -0.8817563370612471
4.95E9                   -0.07848305880883225     -0.8780164701552069
4.98E9                   -0.15316905931222546     -0.8678546847207337
5.01E9                   -0.2266458827613992      -0.8513570305314984
5.04E9                   -0.2983771250702986      -0.8286559756778896
5.07E9                   -0.3678401676175737      -0.7999293617419623
5.1E9                    -0.43453002361861937     -0.7653990187830818
5.13E9                   -0.4979630481399957      -0.7253290507433431
5.16E9                   -0.5576804822546905      -0.6800238052221852
5.19E9                   -0.6132518039194944      -0.6298255444925452
5.22E9                   -0.6642778604460586      -0.5751118371842976
5.25E9                   -0.7103937600273516      -0.5162926917485602
5.28E9                   -0.7512715020842038      -0.4538074540022148
5.31E9                   -0.7866223280508109      -0.3881214917532547
5.34E9                   -0.8161987754711663      -0.3197226904728063
5.37E9                   -0.8397964195058774      -0.2491177852239253
5.4E9                    -0.8572552871417454      -0.17682855650088827
5.43E9                   -0.8684609319597787      -0.10338791941461722
5.46E9                   -0.8733451601179051      -0.02933593801848011
5.49E9                   -0.87188640201951        0.044784202244753234
5.52E9                   -0.864109728067081       0.1184302305002884
5.55E9                   -0.850086510830622       0.19106480139274853
5.58E9                   -0.8299337398317412      0.26215944864627483
5.61E9                   -0.8038129985489294      0.3311984507041511
5.64E9                   -0.7719291162304796      0.39768257969601944
5.67E9                   -0.7345285090095207      0.4611327083190522
5.7E9                    -0.691897225928146       0.5210932510870139
5.73E9                   -0.6443587153308357      0.5771354188956588
5.76E9                   -0.5922713272850273      0.6288602656839851
5.79E9                   -0.536025568429845       0.6759015058492992
5.82E9                   -0.47604112828532164     0.717928080231256
5.85E9                   -0.41276370023230746     0.7546464490651934
5.88E9                   -0.34666162430083425     0.7858025933734826
5.91E9                   -0.2782223819854554      0.8111837106980968
5.94E9                   -0.20794897387315725     0.8306195963705334
5.97E9                   -0.13635620979635218     0.8439837059207005
6.0E9                    -0.06396693934939215     0.851193897179745
