% Model:              cali 3.02 0.91mm.mph
% Version:            COMSOL 5.6.0.280
% Date:               Feb 21 2022, 21:10
% Table:              表格 1 - 全局计算 1
% freq (Hz)              real(emw.S11) (1)        imag(emw.S11) (1)
300000000                0.3682889707565867       -0.9245509624143979
330000000                0.25604077472021486      -0.9611890917028371
360000000                0.14041057749818364      -0.9841936732608506
390000000                0.023061491706476825     -0.9932933071587314
420000000                -0.09432907174555219     -0.9884210353025392
450000000                -0.21009480467612357     -0.9697134667215723
480000000                -0.32260541268840304     -0.9375067036257069
510000000                -0.4302906268238871      -0.8923291863447558
540000000                -0.5316629300800697      -0.8348916283073825
570000000                -0.6253386430698097      -0.7660742610879683
600000000                -0.7100570504103763      -0.6869116524909328
630000000                -0.7846972902906579      -0.5985753978619991
660000000                -0.8482927752323755      -0.5023550148364926
690000000                -0.9000429594636554      -0.3996373945619574
720000000                -0.939322316109535       -0.29188517794354985
750000000                -0.9656864333800457      -0.1806144335648365
780000000                -0.9788751794024168      -0.06737201551561445
810000000                -0.9788129146536463      0.0462870240494862
840000000                -0.965605738099686       0.15882159732076814
870000000                -0.9395357147088295      0.26872594405154404
900000000                -0.9010518930602043      0.37454978112288817
930000000                -0.8507575416057297      0.47491666243219743
960000000                -0.7893920176107757      0.5685393849497941
990000000                -0.7178028358421618      0.6542290224792526
1020000000               -0.6368949608482872      0.7308841920200503
1050000000               -0.5475199013789082      0.7973923572514058
1080000000               -0.4503008342195786      0.8519875101069995
1110000000               -0.34897370068800904     0.8892584658436624
1140000000               -0.2557479960815167      0.9212308738698802
1170000000               -0.15022543857651166     0.9476442566799825
1200000000               -0.04131174825269959     0.9585291537876659
1230000000               0.06736459456176043      0.9560508854829639
1260000000               0.17439072104086772      0.941100426923274
1290000000               0.27850540217475434      0.914220478205113
1320000000               0.3784822340738357       0.875953069927258
1350000000               0.4731456552577076       0.8269237311064388
1380000000               0.5613909654336403       0.7678604525418575
1410000000               0.6421999699003514       0.699592986581944
1440000000               0.7146526540862752       0.6230447646340412
1470000000               0.7779351581785442       0.5392214838274597
1500000000               0.8313433157138462       0.4491982315673895
1530000000               0.8742792351150879       0.3541072629705831
1560000000               0.9062346500976219       0.2551328375526531
1590000000               0.9267495123524171       0.15353999159202347
1620000000               0.9353686329516777       0.05084988854243616
1650000000               0.9320824524359438       -0.05063100636428285
1680000000               0.919357305585012        -0.14898382448560601
1710000000               0.8983284565047587       -0.24662015442902718
1740000000               0.8660959270260058       -0.34282056140902833
1770000000               0.8226923922363014       -0.43476249564819025
1800000000               0.7691658784876658       -0.5208269331661243
1830000000               0.7065055510900327       -0.5998282909635838
1860000000               0.6357990156596686       -0.670658329149104
1890000000               0.5584677614858796       -0.7323526796882471
1920000000               0.4763204663791083       -0.7845023435146814
1950000000               0.3909252922290762       -0.8276981327282988
1980000000               0.30260493360117224      -0.8628578325157603
2010000000               0.21093409380946415      -0.8898004595461366
2040000000               0.11619426997384413      -0.9074193497488943
2070000000               0.01954036852590715      -0.9147821611024809
2100000000               -0.07758126774243657     -0.9114899961936793
2130000000               -0.17376005313458764     -0.8975276329926493
2.16E9                   -0.26767764312375436     -0.8731008614694936
2.19E9                   -0.3580734930837286      -0.8385657676702103
2.22E9                   -0.44369566019746537     -0.7944362890232833
2.25E9                   -0.5232782889836698      -0.7414797761275981
2.28E9                   -0.5956681429680021      -0.6809139266318525
2.31E9                   -0.660340674254711       -0.6144667033614036
2.34E9                   -0.7179671799709886      -0.543540369227676
2.37E9                   -0.769393878277249       -0.46798400577435734
2.4E9                    -0.8139879126915592      -0.3870948271874865
2.43E9                   -0.8503666707304206      -0.3011934138945623
2.46E9                   -0.877491715368003       -0.21133730763742828
2.49E9                   -0.8947437302347465      -0.11880544791404485
2.52E9                   -0.9018383647173119      -0.024920969647831012
2.55E9                   -0.898743182913036       0.06904856018249497
2.58E9                   -0.885591126928953       0.1619154101365394
2.61E9                   -0.8626360279513637      0.25255453560957764
2.64E9                   -0.8302436289292432      0.3398866199616404
2.67E9                   -0.7889005239902638      0.4228741773395265
2.7E9                    -0.7392308259703813      0.500534159438461
2.73E9                   -0.6820115488842817      0.5719715171156204
2.76E9                   -0.6181707293936086      0.6364363597509448
2.79E9                   -0.5487449195720432      0.6933933606896134
2.82E9                   -0.47478261887647255     0.7425671798815254
2.85E9                   -0.39721773768766333     0.7839183326168316
2.88E9                   -0.3167705659405415      0.817535009511138
2.91E9                   -0.2339323538564574      0.8434651125286055
2.94E9                   -0.14908768825817093     0.8615523090434666
2.97E9                   -0.06276017648561964     0.8714216563412812
3.0E9                    0.024218814725548835     0.8726950893071234
3.03E9                   0.11079712480325715      0.8652560077669524
3.06E9                   0.19595862695061028      0.8493294857382003
3.09E9                   0.2789339617466853       0.8253304784979216
3.12E9                   0.3591993252347992       0.7936084833332085
3.15E9                   0.4362652511090378       0.754314328604073
3.18E9                   0.5094672523823015       0.7075065203014435
3.21E9                   0.5779468255359538       0.6533572496289478
3.24E9                   0.6407762273425921       0.5922646785081257
3.27E9                   0.6970828713171873       0.524843547836551
3.3E9                    0.7461131998800234       0.4518679065917618
3.33E9                   0.787252263204655        0.3742186409066947
3.36E9                   0.8200259958779441       0.29284766430658027
3.39E9                   0.8441012352463986       0.2087540287157287
3.42E9                   0.8592891719389861       0.1229640559726257
3.45E9                   0.865551624071663        0.036507670968222966
3.48E9                   0.863003688688508        -0.04961442201810319
3.51E9                   0.8519020650687189       -0.134471279599393
3.54E9                   0.8326106775054953       -0.21723789737388663
3.57E9                   0.8055482900715035       -0.2972082272860505
3.6E9                    0.7711395108916286       -0.3737748158206484
3.63E9                   0.7297928004378783       -0.44638681268799696
3.66E9                   0.6819103969075929       -0.5145122896452742
3.69E9                   0.6279142887130068       -0.5776224487695721
3.72E9                   0.568269317148606        -0.6351963968229457
3.75E9                   0.5034955927758178       -0.6867356814954151
3.78E9                   0.43417159020874846      -0.7317809436459163
3.81E9                   0.36092981359700627      -0.7699282177222487
3.84E9                   0.2844448031970259       -0.8008421750928651
3.87E9                   0.20541552642092037      -0.8242610522149111
3.9E9                    0.12454969539925625      -0.8399901027725243
3.93E9                   0.04255900298186113      -0.847888251369925
3.96E9                   -0.0398325781366145      -0.8478592875756908
3.99E9                   -0.12187563201695079     -0.8398568579758395
4.02E9                   -0.2027898117300734      -0.8239025428978426
4.05E9                   -0.2817732142127504      -0.8001072732788608
4.08E9                   -0.3580243503526044      -0.7686852241045088
4.11E9                   -0.4307685317422128      -0.7299549431836028
4.14E9                   -0.4992806273017581      -0.6843291439223761
4.17E9                   -0.562899924654495       -0.6322982524075149
4.2E9                    -0.6210368534938732      -0.5744129081698887
4.23E9                   -0.6731735989389283      -0.5112687604887853
4.26E9                   -0.7188610442069822      -0.44349500097218836
4.29E9                   -0.7577141536733623      -0.37174705931442337
4.32E9                   -0.7894078177206181      -0.29670333846735203
4.35E9                   -0.8136751789869641      -0.21906497922939094
4.38E9                   -0.8303097551775761      -0.13955649214535096
4.41E9                   -0.8391710996527517      -0.058924579607817495
4.44E9                   -0.840192120804675       0.022066796732207374
4.47E9                   -0.833385489759039       0.10264544555640497
4.5E9                    -0.8188470636006738      0.18204288832096813
4.53E9                   -0.7967554446385716      0.2595072906623065
4.56E9                   -0.7673679608797626      0.33431560529458626
4.59E9                   -0.7310140101327113      0.4057838112503003
4.62E9                   -0.6880867981055273      0.4732748176331722
4.65E9                   -0.6390342809381429      0.5362039867719697
4.68E9                   -0.5843499364944279      0.5940423174268161
4.71E9                   -0.5245640093177008      0.6463173473934791
4.74E9                   -0.460236003640845       0.692612031824579
4.77E9                   -0.3919491784891639      0.7325622717210915
4.8E9                    -0.3203074364583975      0.7658542044309764
4.83E9                   -0.24593433643642887     0.7922225258756861
4.86E9                   -0.16947326872994603     0.8114508150276036
4.89E9                   -0.09158743627658944     0.8233741459926567
4.92E9                   -0.012958375563969327    0.827883483575738
4.95E9                   0.06571772652536848      0.8249307927240205
4.98E9                   0.14373595491298216      0.8145336517436012
5.01E9                   0.2203902643285769       0.7967784341464634
5.04E9                   0.2949819028098423       0.7718216320997825
5.07E9                   0.36682786778430343      0.7398893951093379
5.1E9                    0.43526889149234266      0.7012756683279298
5.13E9                   0.4996767986679045       0.6563393738771773
5.16E9                   0.5594613305166204       0.6055009386440283
5.19E9                   0.6140766107095733       0.5492382489073026
5.22E9                   0.6630273509594485       0.48808192325516386
5.25E9                   0.7058747226602325       0.42260971731385805
5.28E9                   0.7422416440232045       0.35343992723921686
5.31E9                   0.7718171231731241       0.28122381416722164
5.34E9                   0.7943592969406595       0.20663726923981987
5.37E9                   0.8096969135027223       0.13037211302250618
5.4E9                    0.8177291940014225       0.05312752293942111
5.43E9                   0.8184242259465307       -0.02439791957067987
5.46E9                   0.8118162370318367       -0.10151317624217714
5.49E9                   0.7980022245582451       -0.177540495302264
5.52E9                   0.7771384400920202       -0.2518199803061543
5.55E9                   0.749437142099102        -0.3237132264111309
5.58E9                   0.7151638515336434       -0.39260640830036864
5.61E9                   0.6746351249583449       -0.4579132380062134
5.64E9                   0.6282166609312555       -0.5190781299707625
5.67E9                   0.5763214366612089       -0.5755797471425227
5.7E9                    0.5194075619035887       -0.626934917378597
5.73E9                   0.4579756196262462       -0.6727027694386851
5.76E9                   0.39256538599533375      -0.7124888796295209
5.79E9                   0.32375192777544126      -0.7459492368379057
5.82E9                   0.2521411317734373       -0.7727938863713286
5.85E9                   0.17836473214858106      -0.7927901612680296
5.88E9                   0.10307489202809564      -0.8057654333644229
5.91E9                   0.02693838931253687      -0.8116093180997869
5.94E9                   -0.049369535923486654    -0.810275260474943
5.97E9                   -0.1251715949277557      -0.80178142796719
6.0E9                    -0.19979502165318355     -0.786210846209965
