% Model:              three_layers reality at 0.1mm.mph
% Version:            COMSOL 5.6.0.280
% Date:               Mar 9 2022, 10:43
% Table:              表格 1 - 全局计算 1
% freq (Hz)              real(emw.S11) (1)        imag(emw.S11) (1)
300000000                0.5512327724341599       -0.7351768049147559
330000000                0.48206055003508497      -0.7808729207039595
360000000                0.4092303397206422       -0.8201905292523727
390000000                0.33330845572832324      -0.852830583127512
420000000                0.254889791308435        -0.8785449004520225
450000000                0.17459231542289705      -0.8971387591233289
480000000                0.09305162487157564      -0.9084729915895089
510000000                0.01091548510743845      -0.9124655815497859
540000000                -0.0711616609319032      -0.909092758632564
570000000                -0.15252421217980194     -0.8983895855529216
600000000                -0.2325209356236666      -0.8804500324046649
630000000                -0.310510470204315       -0.8554265340210592
660000000                -0.3858667682712912      -0.8235290299885492
690000000                -0.457984435051501       -0.7850234894057895
720000000                -0.5262839186915012      -0.7402299280252791
750000000                -0.590216504985272       -0.6895199294194216
780000000                -0.6492690690151774      -0.6333136873559656
810000000                -0.7029685364951691      -0.5720765919639326
840000000                -0.7508860092933655      -0.5063153875837295
870000000                -0.7926405118631538      -0.4365739353157803
900000000                -0.8279023179659041      -0.3634286191626528
930000000                -0.8563958218616028      -0.28748343812631355
960000000                -0.8779019218061695      -0.20936483233816597
990000000                -0.8922598896852882      -0.12971629372268162
1020000000               -0.8993687059007585      -0.049192815810518674
1050000000               -0.899187845145932       0.03154476160864913
1080000000               -0.8917375049171419      0.11183545438227667
1110000000               -0.877098275445203       0.1910238249231494
1140000000               -0.8554102563699266      0.268465603266657
1170000000               -0.8268716319997028      0.3435331819238946
1200000000               -0.791736723462581       0.4156209291696848
1230000000               -0.7503135419857702      0.4841502688122084
1260000000               -0.7029608731552172      0.5485744776305077
1290000000               -0.6500849269389494      0.6083831560342282
1320000000               -0.5921355927177653      0.663106332073025
1350000000               -0.5296023421147085      0.7123181641259801
1380000000               -0.4630098253320104      0.7556402130864002
1410000000               -0.39291320907720184     0.7927442603048136
1440000000               -0.3198933052453528      0.8233546536168241
1470000000               -0.24455154036194557     0.8472501692641864
1500000000               -0.1675048156202008      0.8642653832520584
1530000000               -0.08938030687445604     0.8742915509197318
1560000000               -0.010810251954494988    0.877276998785146
1590000000               0.067573228211951        0.873227037161467
1620000000               0.14514323144197672      0.862203406545874
1650000000               0.2212830580555165       0.8443232744288034
1680000000               0.29539103856741916      0.8197578025698928
1710000000               0.3668851705400428       0.7887303075748925
1740000000               0.43520753312896193      0.7515140399630181
1770000000               0.49982845115697255      0.7084296087500628
1800000000               0.5602503838606792       0.6598420800525209
1830000000               0.6160115167899658       0.606157779143585
1860000000               0.6666890383812476       0.5478208261043677
1890000000               0.7119020856568388       0.4853094356258364
1920000000               0.7513143465002159       0.4191320113554465
1950000000               0.7846363082400369       0.34982306538378555
1980000000               0.8116271449277346       0.27793899288395624
2010000000               0.8320962377579953       0.20405373166416327
2040000000               0.8459043251317422       0.1287543357866981
2070000000               0.8529642806825394       0.05263649204351938
2100000000               0.8532415193745404       -0.023699992600459505
2130000000               0.8467540333875339       -0.09965570526227338
2.16E9                   0.8335720610279019       -0.17463611573403115
2.19E9                   0.8138173934947392       -0.2480560135679696
2.22E9                   0.7876623257788471       -0.31934386770482415
2.25E9                   0.7553282593486043       -0.38794608437578537
2.28E9                   0.7170839656124862       -0.45333113954252824
2.31E9                   0.6732435197441717       -0.5149935643289337
2.34E9                   0.6241639147588615       -0.5724577630253475
2.37E9                   0.570242363955605        -0.6252816456979122
2.4E9                    0.5119132967563127       -0.6730600575427466
2.43E9                   0.4496450469355233       -0.7154279853631076
2.46E9                   0.3839362254042398       -0.7520635130555773
2.49E9                   0.31531176618780493      -0.7826904802190583
2.52E9                   0.24431864368930684      -0.8070807702468621
2.55E9                   0.1715212942713782       -0.825056125879998
2.58E9                   0.09749684176331536      -0.8364893854494373
2.61E9                   0.022830303445457112     -0.8413050854754499
2.64E9                   -0.051890015397311195    -0.8394794948464395
2.67E9                   -0.12607680706402088     -0.8310402801884061
2.7E9                    -0.19914777073724663     -0.8160660453994197
2.73E9                   -0.27052955379781213     -0.7946858762839464
2.76E9                   -0.33966185625850215     -0.7670788181254414
2.79E9                   -0.4060017966079807      -0.7334730690934964
2.82E9                   -0.4690284602915818      -0.6941446735215095
2.85E9                   -0.5282474482828617      -0.64941560759313
2.88E9                   -0.5831952424638341      -0.5996512689340144
2.91E9                   -0.6334432614058034      -0.5452574497765975
2.94E9                   -0.6786015405551281      -0.48667688830111094
2.97E9                   -0.7183220100426905      -0.42438547879630867
3.0E9                    -0.7523013599514078      -0.35888820187927273
3.03E9                   -0.7802834863509895      -0.29071482175535734
3.06E9                   -0.8020615098382611      -0.2204153906392064
3.09E9                   -0.8174793567426111      -0.1485555986797891
3.12E9                   -0.8264328931744098      -0.07571200875210826
3.15E9                   -0.8288706039087952      -0.0024672177302315504
3.18E9                   -0.8247938115727795      0.0705950126401328
3.21E9                   -0.8142564357941714      0.1428946106369394
3.24E9                   -0.7973642968100308      0.21385999044028142
3.27E9                   -0.7742739728896892      0.28293274472615376
3.3E9                    -0.7451912256830961      0.3495721910137506
3.33E9                   -0.7103690121172447      0.4132597306226439
3.36E9                   -0.6701051055335389      0.4735029818020089
3.39E9                   -0.6247393525879875      0.5298396512013069
3.42E9                   -0.5746505956565423      0.5818411113728659
3.45E9                   -0.5202532935899592      0.629115655249687
3.48E9                   -0.46199387603083686     0.6713114026198812
3.51E9                   -0.40034686873640385     0.7081188374645684
3.54E9                   -0.33581082890592673     0.7392729594058534
3.57E9                   -0.2689041305650182      0.7645550369500473
3.6E9                    -0.20016064077226636     0.7837939546874557
3.63E9                   -0.13012532710610253     0.7968671513418804
3.66E9                   -0.05934983615939515     0.803701150018679
3.69E9                   0.011611918847598268     0.8042716862251407
3.72E9                   0.08220812544671574      0.7986034428613714
3.75E9                   0.1518933612724938       0.7867694041777182
3.78E9                   0.2201327747183509       0.7688898425023293
3.81E9                   0.2864061288424365       0.7451309525751778
3.84E9                   0.35021168166687944      0.7157031488579754
3.87E9                   0.41106987645836457      0.6808590419472996
3.9E9                    0.46852681534659574      0.6408911117244883
3.93E9                   0.5221574891016738       0.5961290977428061
3.96E9                   0.571568736029623        0.5469371318138361
3.99E9                   0.6164019050802971       0.49371064329857295
4.02E9                   0.656335202801574        0.43687307352458044
4.05E9                   0.6910857114911114       0.37687244019442656
4.08E9                   0.7204110758402046       0.31417779378017213
4.11E9                   0.7441108653898344       0.24927560459943177
4.14E9                   0.7620276277173655       0.18266611129618832
4.17E9                   0.7740476495898854       0.1148596513790682
4.2E9                    0.7801014401189971       0.04637298542014357
4.23E9                   0.7801639428909728       -0.022274377888021682
4.26E9                   0.7742544771451713       -0.09056384768799161
4.29E9                   0.7624364045820244       -0.15798139441736903
4.32E9                   0.7448165198593636       -0.2240211525420738
4.35E9                   0.7215441673329295       -0.28818896152938417
4.38E9                   0.6928100909987972       -0.35000582629949306
4.41E9                   0.6588450259270537       -0.40901128218975136
4.44E9                   0.6199180370005618       -0.4647666531157144
4.47E9                   0.576334606317571        -0.516858191489772
4.5E9                    0.52843446685186         -0.5649000846912519
4.53E9                   0.47658917940932605      -0.6085373064577311
4.56E9                   0.4211994535465662       -0.6474482848612552
4.59E9                   0.3626922199545284       -0.6813473542253426
4.62E9                   0.3015174705033783       -0.7099869571921584
4.65E9                   0.23814489066124356      -0.7331595657127434
4.68E9                   0.17306031584293147      -0.7506992953359197
4.71E9                   0.10676204747294965      -0.7624831946362237
4.74E9                   0.039757065449508036     -0.7684321996999168
4.77E9                   -0.02744282839974446     -0.7685117505649449
4.8E9                    -0.09432490561874599     -0.7627320710504875
4.83E9                   -0.16037941947482395     -0.7511481147298926
4.86E9                   -0.22510350395381196     -0.7338591784146298
4.89E9                   -0.28800504121853604     -0.7110081818964296
4.92E9                   -0.3486064730334939      -0.6827806108152391
4.95E9                   -0.4064485274749694      -0.649403119810419
4.98E9                   -0.46109382795923626     -0.6111417959778462
5.01E9                   -0.5121303484623803      -0.5683000876269996
5.04E9                   -0.5591746773534698      -0.5212164095401614
5.07E9                   -0.6018750527165158      -0.4702614425622591
5.1E9                    -0.6399141342415942      -0.4158351519565602
5.13E9                   -0.6730114808012629      -0.35836355505306094
5.16E9                   -0.7009257087301392      -0.2982952737332371
5.19E9                   -0.7234563133327501      -0.23609791005204422
5.22E9                   -0.7404451439809836      -0.172254283021308
5.25E9                   -0.7517775294560103      -0.10725856100542426
5.28E9                   -0.7573830529033376      -0.04161231896855389
5.31E9                   -0.7572359744740086      0.02417945461758868
5.34E9                   -0.7513552958472491      0.08961237696127179
5.37E9                   -0.739804457711577       0.15418668803374735
5.4E9                    -0.7226906618336479      0.21741123058575976
5.43E9                   -0.700163814582906       0.2788073511471176
5.46E9                   -0.6724150976785591      0.337912676085138
5.49E9                   -0.6396751822211593      0.39428471672481086
5.52E9                   -0.6022121117785235      0.4475042611848313
5.55E9                   -0.5603288881812797      0.49717851722883566
5.58E9                   -0.5143607992070746      0.5429439789919694
5.61E9                   -0.4646725298554957      0.5844690005185988
5.64E9                   -0.41165509757981733     0.6214560695972662
5.67E9                   -0.3557226460872143      0.6536437844057676
5.7E9                    -0.297309122564491       0.6808085403443941
5.73E9                   -0.23686485273067062     0.7027659322830118
5.76E9                   -0.17485302184804505     0.7193718684536109
5.79E9                   -0.1117460724394741      0.7305233804773578
5.82E9                   -0.04802204141189144     0.7361591067417195
5.85E9                   0.015839124867980028     0.7362594295158198
5.88E9                   0.07935922758980657      0.730846260058486
5.91E9                   0.14206539395249412      0.7199824846296444
5.94E9                   0.2034935361962692       0.7037710995545179
5.97E9                   0.2631916655724417       0.682354070095308
6.0E9                    0.32072304966617615      0.655910945693603
