% Model:              three_layers reality at 0.1mm.mph
% Version:            COMSOL 5.6.0.280
% Date:               Mar 10 2022, 21:50
% Table:              表格 1 - 全局计算 1
% freq (Hz)              real(emw.S11) (1)        imag(emw.S11) (1)
300000000                0.4183232771316561       -0.8068391825020114
330000000                0.3303363812469508       -0.843585379807037
360000000                0.239418955149867        -0.8709876819592681
390000000                0.14651353395085406      -0.8888195024886617
420000000                0.05258885893835128      -0.8969481825304346
450000000                -0.04137203354939683     -0.8953390023369775
480000000                -0.13438360745349306     -0.8840572824680054
510000000                -0.22546942876219733     -0.8632688234273111
540000000                -0.313673486902799       -0.8332388532925212
570000000                -0.3980711432526414      -0.7943296099673987
600000000                -0.47777961012456044     -0.746996662613193
630000000                -0.5519678625587666      -0.6917840671607494
660000000                -0.6198658866361246      -0.629318448699415
690000000                -0.6807731722733661      -0.5603021055839127
720000000                -0.7340663644459279      -0.48550523440031806
750000000                -0.779205994683836       -0.40575738047833226
780000000                -0.8157422241691604      -0.32193822424274554
810000000                -0.843319540552715       -0.2349678188481001
840000000                -0.8616803623768         -0.14579639922742155
870000000                -0.8706675175753333      -0.05539388584381813
900000000                -0.8702255757394113      0.03526079120178571
930000000                -0.8604010272807039      0.12519042145887296
960000000                -0.8413413162580444      0.21343017131343756
990000000                -0.813292747109721       0.29903804557121666
1020000000               -0.7765972986076781      0.38110503411989344
1050000000               -0.7316883911084251      0.4587648288325646
1080000000               -0.6790856648966801      0.53120300311731
1110000000               -0.6193888385433051      0.5976655537054095
1140000000               -0.5532707261303976      0.6574667135238088
1170000000               -0.48146950102243813     0.7099959541671758
1200000000               -0.4047803014211437      0.7547241073305389
1230000000               -0.3240462791370895      0.7912085458672651
1260000000               -0.2401491980086041      0.8190973768931262
1290000000               -0.15399969162751592     0.8381326116883985
1320000000               -0.06652729226199909     0.8481522892627127
1350000000               0.02132965649280827      0.849091542780419
1380000000               0.10863409163098386      0.8409826101058665
1410000000               0.19446021721655066      0.8239538014401312
1440000000               0.27790327876488913      0.798227448309885
1470000000               0.35808902314783836      0.7641168688463029
1500000000               0.43418274672142126      0.722022394326981
1530000000               0.5053978408978255       0.67242651114399
1560000000               0.5710037510348936       0.6158881808970172
1590000000               0.6303332726332024       0.5530364086601377
1620000000               0.6827891167945439       0.4845631362326051
1650000000               0.7278496858957926       0.4112155427721974
1680000000               0.7650740095687429       0.3337878399001387
1710000000               0.7941058006768942       0.2531126519690197
1740000000               0.8146766005557791       0.1700520751453304
1770000000               0.8266079929044509       0.08548851032265528
1800000000               0.8298128755449199       3.1536589997551334E-4
1830000000               0.8242957894469534       -0.0845722741599436
1860000000               0.8101523144109649       -0.16828692287444108
1890000000               0.7875675508158246       -0.24995781219502644
1920000000               0.7568137166523652       -0.32873977722175496
1950000000               0.718246898513376        -0.4038218215484932
1980000000               0.6723030038670263       -0.4744352907862336
2010000000               0.6194929690550492       -0.5398615921617143
2040000000               0.5603972815271228       -0.5994394123747638
2070000000               0.4956598731633447       -0.6525714037901322
2100000000               0.4259814299114272       -0.6987303293809293
2130000000               0.3521121349387009       -0.7374646755101594
2.16E9                   0.2748438112344907       -0.768403747212233
2.19E9                   0.19500135262620885      -0.7912622303757737
2.22E9                   0.11343324554699273      -0.8058441016344035
2.25E9                   0.031000946561760934     -0.81204554952244
2.28E9                   -0.05143298222669906     -0.8098562421655795
2.31E9                   -0.13301760273605864     -0.7993579782006752
2.34E9                   -0.21292596630582583     -0.7807198499452443
2.37E9                   -0.29036504444837646     -0.7541899750193384
2.4E9                    -0.36458123067901804     -0.7200855841658859
2.43E9                   -0.434861144904068       -0.6787846955059887
2.46E9                   -0.5005301433676727      -0.6307221340816143
2.49E9                   -0.5609523785401204      -0.5763900011508922
2.52E9                   -0.6155350076930832      -0.5163398656648049
2.55E9                   -0.6637363241709426      -0.4511832374315528
2.58E9                   -0.7050755624733425      -0.3815883991452154
2.61E9                   -0.7391419878963139      -0.30827370398401827
2.64E9                   -0.7656019168255743      -0.23199857043109118
2.67E9                   -0.7842033947622747      -0.1535534793431938
2.7E9                    -0.794778849165632       -0.07374984625016658
2.73E9                   -0.7972461744718293      0.0065898116867445415
2.76E9                   -0.7916086239478992      0.0866412816275205
2.79E9                   -0.7779537504928288      0.1655876287013383
2.82E9                   -0.7564515320934307      0.24262776278496082
2.85E9                   -0.7273517529311581      0.3169846125916228
2.88E9                   -0.6909806797556644      0.3879128990864476
2.91E9                   -0.6477370627436634      0.4547064800700049
2.94E9                   -0.5980874909512098      0.5167052241598764
2.97E9                   -0.5425611388076111      0.5733013645843971
3.0E9                    -0.48174394830387207     0.623945280842483
3.03E9                   -0.41627230002867127     0.6681506575169247
3.06E9                   -0.3468262340718788      0.7054989736920109
3.09E9                   -0.2741222884198335      0.7356432827741067
3.12E9                   -0.19890602761890452     0.7583112503752824
3.15E9                   -0.12194433761871562     0.7733074268493857
3.18E9                   -0.04401756384310556     0.780514740267729
3.21E9                   0.03408843155930583      0.7798952043870832
3.24E9                   0.11159022022382104      0.7714898435259786
3.27E9                   0.18771469668078603      0.755417841495065
3.3E9                    0.2617068406642897       0.7318749244542035
3.33E9                   0.33283728934797807      0.701130988048634
3.36E9                   0.40040965557146535      0.6635269783781986
3.39E9                   0.46376752357712797      0.6194710360052548
3.42E9                   0.5223010457432349       0.5694339143070298
3.45E9                   0.5754530525796462       0.5139436906649204
3.48E9                   0.6227245769515005       0.45357980291669975
3.51E9                   0.6636796847860595       0.38896646571330806
3.54E9                   0.6979495036161428       0.3207655508842049
3.57E9                   0.725235351076853        0.24966904943329987
3.6E9                    0.7453108906516981       0.17639126443516964
3.63E9                   0.7580232803228836       0.10166090642196302
3.66E9                   0.763293325840359        0.026213270204851393
3.69E9                   0.7611146961977525       -0.04921733744039657
3.72E9                   0.7515522976936435       -0.12390477251952857
3.75E9                   0.7347399326115291       -0.19713771474298
3.78E9                   0.7108773913775569       -0.26822573289200496
3.81E9                   0.6802271455073363       -0.3365047142874348
3.84E9                   0.6431108187321986       -0.4013416714749776
3.87E9                   0.5999056031454352       -0.4621390062221991
3.9E9                    0.5510407419211275       -0.5183383793844197
3.93E9                   0.49699411561455165      -0.5694243817115056
3.96E9                   0.4382888604261906       -0.6149281986665782
3.99E9                   0.37548984634077504      -0.6544313997631322
4.02E9                   0.3091997871726248       -0.6875698713491372
4.05E9                   0.24005476543613594      -0.7140377843931631
4.08E9                   0.16871902996763632      -0.7335913858109826
4.11E9                   0.0958790381862663       -0.7460523526710174
4.14E9                   0.022236832025146036     -0.7513104621251747
4.17E9                   -0.05149707405937303     -0.7493253940050417
4.2E9                    -0.12461107109991794     -0.7401275734709304
4.23E9                   -0.19639988160022917     -0.7238180507934237
4.26E9                   -0.26617185565189994     -0.7005674828413321
4.29E9                   -0.33325601713993946     -0.6706143146991608
4.32E9                   -0.39700879522448224     -0.6342622600748017
4.35E9                   -0.45682041376796295     -0.5918771557123008
4.38E9                   -0.5121209241792279      -0.5438832331607142
4.41E9                   -0.5623858583424535      -0.4907588256109204
4.44E9                   -0.6071414571824213      -0.4330315173089016
4.47E9                   -0.6459694084336342      -0.37127274989451214
4.5E9                    -0.6785110126392286      -0.3060919201358105
4.53E9                   -0.7044706941314294      -0.2381300299619925
4.56E9                   -0.7236187837909561      -0.1680529765017477
4.59E9                   -0.7357935217455315      -0.0965445913647433
4.62E9                   -0.7409022577129312      -0.024299550907910583
4.65E9                   -0.7389218604244077      0.04798372139160985
4.68E9                   -0.7298983787496701      0.11961005471649325
4.71E9                   -0.7139460175354748      0.18989435584065867
4.74E9                   -0.6912454933196831      0.2581682166115199
4.77E9                   -0.6620418172388508      0.32378628963844697
4.8E9                    -0.6266415213865809      0.38613242748934057
4.83E9                   -0.5854093148983351      0.44462556634372574
4.86E9                   -0.5387641424127569      0.49872530160527884
4.89E9                   -0.48717462928635574     0.5479370641663651
4.92E9                   -0.43115393350241        0.5918167780051334
4.95E9                   -0.37125407365389523     0.6299748738737269
4.98E9                   -0.30805985173988265     0.6620795540286927
5.01E9                   -0.24218252661840403     0.6878592455030832
5.04E9                   -0.17425340905493344     0.7071042368800632
5.07E9                   -0.10491753718701045     0.7196675545494684
5.1E9                    -0.03482755037083596     0.7254651855901022
5.13E9                   0.0353621838610124       0.7244757803008546
5.16E9                   0.1050012052599481       0.7167399557636382
5.19E9                   0.1734484271972054       0.702359270737073
5.22E9                   0.24007751375146996      0.681494867386464
5.25E9                   0.3042822072037389       0.6543657085390812
5.28E9                   0.3654815686902014       0.6212463147336242
5.31E9                   0.42312501844865463      0.5824639397500734
5.34E9                   0.4766970268098636       0.5383952022072875
5.37E9                   0.5257213324464454       0.48946227501239914
5.4E9                    0.5697646375952946       0.43612878272429384
5.43E9                   0.608439815144346        0.3788955489765728
5.46E9                   0.641408722530808        0.318296280174146
5.49E9                   0.6683847317393682       0.25489319538148875
5.52E9                   0.6891350545749223       0.18927254540637584
5.55E9                   0.7034828835922838       0.12203992636292907
5.58E9                   0.7113093014260671       0.053815291247479136
5.61E9                   0.7125548516743273       -0.014772405830825659
5.64E9                   0.7072206251222387       -0.08309094117800363
5.67E9                   0.6953687056945314       -0.15051086434131386
5.7E9                    0.6771218488158941       -0.21641171295837724
5.73E9                   0.6526623323149998       -0.2801882047224732
5.76E9                   0.6222300136372859       -0.341256198953283
5.79E9                   0.5861197159217983       -0.3990582645570717
5.82E9                   0.544678111318119        -0.4530687804133732
5.85E9                   0.4983002510585385       -0.502798589832337
5.88E9                   0.44742582067490383      -0.5477992878034885
5.91E9                   0.3925351156973868       -0.5876672159545652
5.94E9                   0.3341446796029816       -0.6220471877376121
5.97E9                   0.27280254006581117      -0.6506358990401374
6.0E9                    0.20908301307083602      -0.6731849283278414
